ITEM: TIMESTEP
0
ITEM: NUMBER OF ATOMS
600
ITEM: BOX BOUNDS pp pp pp
0.0000000000000000e+00 3.6000000000000000e+01
0.0000000000000000e+00 3.6000000000000000e+01
0.0000000000000000e+00 3.6000000000000000e+01
ITEM: ATOMS id type xu yu zu
334 1 36.5626 5.60578 1.25343
35 2 39.9174 5.70046 43.6191
34 1 39.1053 5.98424 44.3972
167 2 0.370351 39.6251 42.2354
335 2 37.1983 5.0178 2.02529
244 1 45.5294 39.669 2.12823
245 2 45.4495 38.724 1.46023
246 2 45.6094 40.6139 2.79623
430 1 46.9464 -28.426 38.9912
432 2 45.8823 -28.3777 38.5319
431 2 48.0105 -28.4743 39.4505
405 2 16.6793 7.47447 40.3332
403 1 16.101 8.47488 40.4349
491 2 14.6473 -29.8678 36.741
144 2 16.7373 8.81898 8.02784
68 2 44.7343 10.1647 72.6768
585 2 6.2806 13.661 1.22105
583 1 5.8846 12.587 1.033
584 2 5.4886 11.5131 0.844962
80 2 5.71646 48.5224 40.5069
201 2 2.64581 -20.1799 41.38
79 1 6.85474 48.6614 40.332
81 2 7.99301 48.8003 40.157
200 2 3.49899 -20.5917 39.2623
199 1 3.0724 -20.3858 40.3212
411 2 0.617145 14.8649 8.23735
323 2 53.8414 -25.5297 2.96782
340 1 10.7558 11.746 41.2403
341 2 11.1061 12.3885 42.1403
342 2 10.4054 11.1036 40.3402
404 2 15.5227 9.4753 40.5366
46 1 1.18393 38.7383 11.2611
371 2 73.4191 6.33818 48.8665
394 1 5.26764 44.02 47.9749
396 2 5.50981 44.15 49.1018
395 2 5.02546 43.89 46.8479
47 2 0.497141 38.2924 10.4395
48 2 1.87073 39.1841 12.0828
370 1 72.4466 5.9943 49.3971
108 2 39.8945 38.5514 16.7609
106 1 38.9647 39.2438 16.8026
107 2 38.0349 39.9362 16.8443
36 2 38.2931 6.26802 45.1753
479 2 10.7617 38.6998 47.9428
478 1 11.1102 39.5788 48.6146
399 2 11.418 2.2156 17.5787
397 1 10.5597 2.96376 17.8004
13 1 49.8719 -30.7561 11.1924
14 2 49.6677 -29.6297 11.3797
15 2 50.0762 -31.8825 11.005
480 2 11.4587 40.4578 49.2865
304 1 -21.2098 7.47042 51.3719
306 2 -20.6881 7.64668 52.3929
305 2 -21.7315 7.29416 50.3509
142 1 17.0283 8.97322 9.14011
473 2 37.633 49.054 12.615
536 2 2.0985 9.3018 -22.6878
535 1 2.35011 9.36497 -21.5571
410 2 1.53291 16.3167 9.79811
472 1 36.9344 48.55 13.3918
537 2 2.60172 9.42813 -20.4265
103 1 39.0768 12.0556 -18.1761
474 2 36.2358 48.0459 14.1687
95 2 43.5833 17.9336 48.6418
104 2 38.8004 12.5009 -19.211
94 1 42.9595 17.7848 47.6752
96 2 42.3358 17.636 46.7085
409 1 1.07503 15.5908 9.01773
258 2 16.0983 13.1218 16.7523
256 1 16.9676 13.2087 15.9892
257 2 17.8369 13.2956 15.226
281 2 49.665 15.0625 14.4396
280 1 49.6854 16.1779 14.1217
143 2 17.3192 9.12746 10.2524
282 2 49.7058 17.2933 13.8039
284 2 16.8214 17.5924 -21.0071
109 1 6.2433 40.124 24.4986
111 2 5.12621 40.1989 24.8021
110 2 7.36039 40.0492 24.1952
564 2 0.230334 40.3905 23.429
563 2 0.18683 39.9847 25.7129
562 1 0.208582 40.1876 24.5709
555 2 41.1725 36.1665 19.7149
64 1 -18.643 5.03407 26.208
29 2 9.89805 7.86762 26.0232
416 2 12.7611 43.5627 24.3655
415 1 13.9169 43.4814 24.3096
417 2 15.0727 43.4002 24.2536
318 2 15.3501 36.5219 24.2257
236 2 -20.3668 6.10329 20.6441
317 2 13.7603 36.8655 22.5712
316 1 14.5552 36.6937 23.3985
235 1 -19.4725 5.3645 20.64
237 2 -18.5782 4.6257 20.6358
65 2 -18.9923 4.05106 25.7007
330 2 14.3229 3.01294 19.3356
398 2 9.70133 3.71192 18.022
28 1 9.98138 8.75276 25.2781
328 1 13.7106 2.03335 19.4408
444 2 16.5188 36.4888 21.0058
329 2 13.0983 1.05376 19.546
66 2 -18.2937 6.01708 26.7152
572 2 43.1957 45.7822 59.0175
573 2 43.6351 47.6162 57.6663
571 1 43.4154 46.6992 58.3419
504 2 39.0716 -23.4026 22.7856
356 2 5.4645 14.5391 -13.8657
355 1 6.1213 14.1455 -12.9943
176 2 39.243 52.3303 26.0784
357 2 6.7781 13.7519 -12.1229
503 2 38.3156 -21.4134 23.7096
502 1 38.6936 -22.408 23.2476
105 2 39.3531 11.6102 -17.1413
254 2 8.47505 16.4167 25.4724
253 1 8.21769 17.2274 26.2612
77 2 17.4861 50.3857 -12.112
456 2 -18.4968 -18.2994 -9.82598
30 2 10.0647 9.6379 24.533
575 2 84.7903 -19.272 26.5319
574 1 84.0096 -18.4275 26.3804
78 2 15.3 50.4459 -11.3375
76 1 16.3931 50.4158 -11.7247
216 2 11.0921 50.1624 23.5981
215 2 9.40756 50.9863 22.2321
214 1 10.2498 50.5743 22.9151
457 1 3.74815 44.9319 -40.0994
179 2 -29.7822 7.71448 31.5899
458 2 3.48328 44.4783 -41.1337
11 2 36.4508 43.7997 -2.55448
178 1 -29.0686 7.55345 32.4901
180 2 -28.3549 7.39242 33.3902
203 2 -25.101 42.7587 -40.4771
202 1 -25.3166 42.1307 -39.5259
414 2 -20.0329 3.71375 31.3852
204 2 -25.5321 41.5026 -38.5748
97 1 -18.8013 0.515448 -1.97248
448 1 16.2975 44.3188 65.7376
413 2 -19.4198 3.77009 33.622
490 1 14.3477 -29.9365 35.6225
412 1 -19.7263 3.74192 32.5036
492 2 14.0482 -30.0051 34.5039
449 2 16.6384 43.5952 66.5777
273 2 39.286 45.8397 -7.99293
459 2 4.01301 45.3854 -39.0651
271 1 40.4382 45.8538 -8.12652
272 2 41.5904 45.8679 -8.26011
141 2 6.82013 12.7939 34.1994
139 1 6.76529 11.6673 33.9287
177 2 40.4532 52.7289 28.0172
140 2 6.71044 10.5406 33.658
519 2 6.78375 53.7817 30.1131
175 1 39.8481 52.5296 27.0478
515 2 -23.4782 12.3569 27.2648
187 1 48.0149 17.3685 32.8733
2 2 50.2248 16.8144 -6.05627
450 2 15.9567 45.0424 64.8975
207 2 46.5325 10.0401 28.2351
206 2 48.6606 10.0024 29.1584
252 2 14.6494 11.3622 35.3527
189 2 47.9745 16.2813 32.4707
205 1 47.5966 10.0213 28.6968
516 2 -21.9625 13.9427 28.0197
251 2 15.3668 9.30628 34.5521
1 1 51.2207 17.2531 -6.45795
50 2 10.6593 46.5457 31.525
115 1 53.1118 -21.6979 -7.97737
117 2 53.0692 -22.3972 -8.90189
49 1 10.4988 47.666 31.7797
51 2 10.3383 48.7863 32.0343
250 1 15.0081 10.3342 34.9524
3 2 52.2166 17.6917 -6.85964
67 1 45.5523 10.1754 71.8543
69 2 46.3702 10.1861 71.0318
261 2 13.9353 11.8372 32.0495
514 1 -22.7203 13.1498 27.6422
116 2 53.1544 -20.9986 -7.05285
260 2 14.517 13.8703 33.0037
259 1 14.2262 12.8538 32.5266
566 2 3.72075 90.954 8.10261
567 2 3.36414 91.144 5.81807
218 2 6.18812 19.8581 6.82555
565 1 3.54244 91.049 6.96034
217 1 7.25695 20.2261 7.08595
219 2 8.32578 20.5941 7.34635
31 1 17.2311 25.6697 2.36175
32 2 16.4342 26.3963 2.78918
393 2 0.221903 35.3117 8.71444
8 2 2.53244 65.8575 4.7842
7 1 3.02277 66.3081 3.83437
9 2 3.51309 66.7586 2.88454
436 1 50.5599 -42.7051 38.6693
88 1 -18.2746 28.3364 0.554144
378 2 50.001 -4.77603 5.51622
377 2 50.5777 -4.33333 7.71936
438 2 51.4239 -43.0331 39.3705
376 1 50.2894 -4.55468 6.61779
437 2 49.696 -42.3772 37.9681
90 2 -19.2609 27.8635 0.168039
213 2 1.01153 -12.0839 51.8855
185 2 0.561196 19.0909 45.4839
186 2 0.8035 21.3566 45.9204
184 1 0.682348 20.2238 45.7021
285 2 16.6181 18.5222 -23.1229
283 1 16.7197 18.0573 -22.065
21 2 44.136 32.3497 88.5934
525 2 44.7314 -2.40677 13.5873
19 1 44.7926 31.4187 88.3748
337 1 12.0216 30.5184 10.1192
524 2 46.1996 -1.93928 11.8529
321 2 -18.5802 35.4267 14.7324
339 2 12.412 31.5655 10.4301
20 2 45.4491 30.4877 88.1563
338 2 11.6311 29.4713 9.80821
523 1 45.4655 -2.17303 12.7201
60 2 -57.8008 -12.6302 -15.4672
455 2 -19.8742 -16.7398 -10.8521
576 2 83.229 -17.583 26.229
59 2 -58.0441 -12.5362 -17.7725
58 1 -57.9225 -12.5832 -16.6199
132 2 13.0387 -10.228 -13.0517
130 1 14.07 -10.7567 -12.9997
23 2 15.433 -9.8966 18.7457
158 2 13.7442 -14.155 -11.7191
157 1 13.8054 -14.6715 -10.6822
454 1 -19.1855 -17.5196 -10.3391
22 1 15.1418 -9.10333 19.5404
131 2 15.1012 -11.2853 -12.9478
159 2 13.8665 -15.188 -9.64532
554 2 42.0323 34.0177 19.8754
54 2 8.84492 34.3732 -14.7094
71 2 36.6599 30.2991 -10.2042
553 1 41.6024 35.0921 19.7952
113 2 0.709861 -0.326519 23.5029
112 1 0.881108 -1.31955 24.0775
520 1 41.0754 34.5337 62.8236
522 2 41.4598 34.8784 61.7849
114 2 1.05236 -2.31258 24.6521
70 1 37.3709 30.8019 -9.43783
24 2 14.8506 -8.31005 20.3351
53 2 10.6311 34.5177 -13.236
52 1 9.73801 34.4455 -13.9727
226 1 9.80646 -3.74534 26.041
332 2 16.5265 -7.10672 -10.7101
227 2 9.82504 -2.74042 26.6202
209 2 51.7106 -5.33994 56.5188
210 2 49.86 -4.70118 55.2739
208 1 50.7853 -5.02056 55.8964
442 1 16.5269 35.5256 20.3595
443 2 16.5349 34.5625 19.7131
83 2 17.0107 -4.05442 25.163
84 2 17.7315 -2.18333 23.996
82 1 17.3711 -3.11887 24.5795
228 2 9.78788 -4.75026 25.4619
331 1 17.6381 -6.87466 -10.4735
289 1 39.1104 19.6616 32.7286
290 2 39.6345 19.0263 33.5454
291 2 38.5863 20.297 31.9117
518 2 6.01942 55.6629 28.9909
517 1 6.40159 54.7223 29.552
255 2 7.96033 18.0381 27.05
229 1 46.354 55.0541 66.0507
230 2 45.7466 54.5194 66.8817
188 2 48.0552 18.4556 33.276
231 2 46.9615 55.5889 65.2197
102 2 15.3732 54.3947 34.7118
101 2 17.1197 54.0796 33.2174
100 1 16.2464 54.2371 33.9646
521 2 40.691 34.189 63.8624
72 2 38.0818 31.3048 -8.67152
222 2 17.1317 31.3729 -1.90885
98 2 -19.6755 -0.0934298 -2.43139
220 1 17.9248 32.0291 -1.37401
463 1 23.6042 6.96596 8.69864
464 2 24.3464 6.08133 8.58813
354 2 19.8257 43.7809 3.02487
353 2 21.7144 43.9231 4.36467
352 1 20.77 43.852 3.69477
172 1 22.3394 2.18597 39.5732
238 1 18.9035 5.1766 36.2326
173 2 21.3716 2.38232 40.1819
174 2 23.3072 1.98962 38.9646
240 2 18.1397 4.31997 36.4009
287 2 -11.2051 44.3169 6.38972
286 1 -10.2068 44.7253 5.96296
465 2 22.862 7.85059 8.80915
239 2 19.6674 6.03323 36.0643
392 2 -0.914086 36.7433 7.28532
597 2 28.0605 -35.1085 6.68202
595 1 28.124 -34.5214 5.68356
327 2 29.049 40.3029 7.78345
596 2 28.1874 -33.9344 4.68509
166 1 -0.280833 39.3698 41.3101
168 2 -0.932018 39.1145 40.3847
325 1 29.7152 39.4397 7.38763
326 2 30.3815 38.5765 6.99182
581 2 -1.08266 8.11125 8.72409
122 2 -4.56874 43.55 7.3451
485 2 -5.28056 -28.5929 3.48609
484 1 -4.31068 -29.2287 3.51316
391 1 -0.346091 36.0275 7.99988
486 2 -3.3408 -29.8644 3.54023
121 1 -5.10205 44.1005 8.21578
336 2 35.9269 6.19377 0.481577
288 2 -9.20842 45.1337 5.5362
322 1 54.9238 -25.2099 3.23574
551 2 -13.9877 84.6332 5.36932
550 1 -13.2817 83.8444 4.89502
324 2 56.0062 -24.89 3.50367
552 2 -12.5757 83.0556 4.42072
513 2 23.8862 10.9159 -27.1166
467 2 24.5011 13.277 0.560632
466 1 23.6145 12.6667 0.993172
468 2 22.7279 12.0564 1.42571
375 2 20.6113 10.0168 7.2284
373 1 20.7249 10.0688 8.38165
476 2 -5.10428 14.7058 0.273469
477 2 -3.98276 16.1468 1.70455
506 2 -8.54175 49.7139 5.53871
539 2 28.7538 11.2411 43.8677
538 1 28.1154 10.7591 44.7078
505 1 -8.23247 49.0691 4.62538
475 1 -4.54352 15.4263 0.989012
507 2 -7.92319 48.4243 3.71205
274 1 59.9095 7.33627 13.5119
276 2 60.6416 6.93277 14.3162
275 2 59.1774 7.73976 12.7076
56 2 24.1499 40.0951 17.026
55 1 25.0484 40.1376 16.2936
509 2 54.118 37.1325 11.8263
508 1 54.2381 38.2863 11.8278
301 1 -12.2035 36.7169 12.5724
303 2 -12.4312 37.4598 13.4338
57 2 25.9469 40.1801 15.5611
5 2 26.6021 36.5287 -19.719
594 2 26.8065 43.225 46.5157
510 2 54.3582 39.4401 11.8292
27 2 23.9533 0.992112 17.8625
162 2 63.2053 0.556795 11.8202
546 2 27.9354 41.6668 14.0465
234 2 28.9082 8.84684 12.4948
580 1 -0.770637 7.54334 9.68623
592 1 27.6333 42.4351 46.7112
62 2 65.4607 4.10268 17.4609
418 1 31.4149 38.4098 47.5487
296 2 -2.47358 8.10707 52.5862
154 1 67.4103 42.41 12.9316
156 2 67.4656 42.7041 11.8109
155 2 67.355 42.1158 14.0523
148 1 -1.32063 -30.2552 17.7098
372 2 71.4741 5.65042 49.9276
544 1 28.2692 40.5818 14.2851
545 2 28.603 39.4968 14.5237
420 2 31.6898 39.0936 46.653
4 1 27.2719 36.0367 -20.5282
419 2 31.14 37.7259 48.4445
593 2 28.46 41.6452 46.9066
582 2 -0.45861 6.97544 10.6484
295 1 -3.55888 8.47031 52.397
149 2 -2.16158 -30.9133 17.2568
297 2 -4.64418 8.83355 52.2078
160 1 64.0773 0.122328 11.1905
123 2 -5.63537 44.6511 9.08645
267 2 24.3671 46.9897 15.4976
374 2 20.8386 10.1207 9.5349
511 1 23.9722 11.3104 -26.0291
512 2 24.0581 11.7048 -24.9416
349 1 21.9922 16.1156 10.1267
351 2 21.0449 15.7774 9.54885
350 2 22.9395 16.4537 10.7045
266 2 26.4336 45.9446 15.6377
265 1 25.4003 46.4671 15.5677
421 1 69.8399 13.2808 52.0468
577 1 28.4283 12.7388 48.4441
232 1 29.8056 9.56054 12.3188
460 1 -2.25072 10.6089 13.3245
233 2 30.7029 10.2742 12.1427
579 2 27.402 12.7337 48.9848
423 2 70.4706 14.1773 51.6672
540 2 27.477 10.2772 45.5478
422 2 69.2091 12.3844 52.4264
578 2 29.4546 12.744 47.9034
461 2 -1.91616 9.59299 12.8755
153 2 -3.78986 14.3658 13.5633
151 1 -3.36136 14.0627 12.5288
152 2 -2.93286 13.7596 11.4944
462 2 -2.58529 11.6249 13.7734
307 1 -15.716 5.15953 -12.9654
308 2 -16.6307 4.75731 -12.3762
445 1 20.0592 1.10711 21.7465
447 2 20.2706 1.93196 22.5343
446 2 19.8478 0.282251 20.9588
309 2 -14.8014 5.56174 -13.5547
362 2 22.9601 6.55579 26.9552
560 2 25.9521 0.905738 -12.256
363 2 21.2801 6.80955 25.3755
361 1 22.1201 6.68267 26.1654
559 1 24.9924 0.73794 -12.8857
561 2 24.0327 0.570143 -13.5153
25 1 24.653 0.591622 18.6966
26 2 25.3527 0.191132 19.5306
385 1 33.3615 -34.5513 24.016
386 2 33.2413 -33.3997 23.9456
387 2 33.4817 -35.7029 24.0865
39 2 -2.13292 -29.3133 23.6551
38 2 -0.853618 -27.5427 24.4367
37 1 -1.49327 -28.428 24.0459
61 1 66.0083 3.58213 18.3411
63 2 66.5559 3.06159 19.2213
150 2 -0.479683 -29.597 18.1628
426 2 -1.57534 37.3417 19.1445
424 1 -0.976684 36.3484 19.1682
390 2 -9.21317 14.2213 25.1293
569 2 -10.827 11.8748 -48.8288
568 1 -10.3178 10.906 -48.4443
74 2 -15.2596 -18.2313 26.1843
570 2 -9.80868 9.93722 -48.0598
368 2 -9.52925 15.8439 20.7389
248 2 22.1742 17.6693 21.4133
526 1 -7.15148 17.1735 26.27
528 2 -8.24732 16.8513 26.0677
369 2 -7.99361 14.7176 19.4139
367 1 -8.76143 15.2807 20.0764
314 2 -0.797883 53.1309 60.8358
527 2 -6.05563 17.4957 26.4722
313 1 -0.947035 52.0902 61.3261
315 2 -1.09619 51.0496 61.8164
389 2 -7.28034 13.4306 26.14
388 1 -8.24675 13.826 25.6347
401 2 55.9792 3.60713 -8.59863
452 2 25.1023 6.72385 31.6229
453 2 24.3004 5.11065 30.1611
299 2 21.55 6.393 -5.0306
588 2 19.717 37.5142 31.2339
298 1 21.24 5.91993 -4.01782
300 2 20.93 5.44686 -3.00504
402 2 57.3743 2.64174 -7.01618
586 1 20.5725 36.7426 31.369
99 2 -17.927 1.12433 -1.51358
264 2 18.7689 8.36839 -2.65315
400 1 56.6768 3.12443 -7.8074
451 1 24.7013 5.91725 30.892
270 2 57.6148 36.3313 -1.75918
407 2 -38.1231 1.59483 27.721
10 1 35.997 44.8436 -2.33107
279 2 27.0685 37.1133 31.2986
439 1 28.3552 4.13296 31.7489
440 2 29.3031 3.61218 32.1684
441 2 27.4074 4.65374 31.3294
170 2 33.0799 38.9676 -4.61102
169 1 34.1701 38.817 -4.24446
277 1 27.3114 36.2872 32.0759
171 2 35.2603 38.6665 -3.8779
406 1 -37.2453 1.20119 28.3691
408 2 -36.3674 0.807557 29.0171
262 1 18.7746 9.15541 -1.80099
590 2 20.9526 17.1202 -40.6152
263 2 18.7804 9.94243 -0.948841
591 2 21.0737 14.8492 -40.157
589 1 21.0131 15.9847 -40.3861
12 2 35.5431 45.8875 -2.10766
482 2 26.1781 23.7868 7.45356
33 2 18.0279 24.9431 1.93431
481 1 27.1619 24.4012 7.46856
483 2 28.1457 25.0157 7.48356
381 2 20.0484 -7.70912 3.75492
379 1 21.1949 -7.55843 3.66345
380 2 22.3415 -7.40774 3.57197
600 2 24.893 29.0588 -34.5188
598 1 25.2897 29.5834 -33.5633
182 2 23.4417 -2.86984 41.3512
348 2 -12.3125 33.5233 2.25879
181 1 22.8973 -3.81263 40.9507
183 2 22.3529 -4.75541 40.5502
599 2 25.6864 30.108 -32.6077
346 1 -12.097 34.2283 1.36318
119 2 22.5377 30.5491 7.62547
120 2 23.9812 29.0193 8.60435
347 2 -11.8816 34.9333 0.467568
118 1 23.2595 29.7842 8.11491
89 2 -17.2883 28.8093 0.940249
384 2 -8.90844 33.4873 2.45153
382 1 -8.40588 34.4528 2.85258
163 1 -3.78891 32.779 38.5973
383 2 -7.90331 35.4183 3.25364
165 2 -2.86076 33.0169 37.9434
164 2 -4.71706 32.5411 39.2511
126 2 65.175 -2.37465 -29.4098
344 2 -4.11643 33.3899 8.01134
124 1 65.871 -1.62002 -29.9499
125 2 66.567 -0.865386 -30.49
366 2 26.0292 22.617 47.7431
364 1 25.9144 22.1148 46.7037
365 2 25.7997 21.6126 45.6644
487 1 62.377 -13.2178 -20.3147
488 2 61.693 -12.3598 -20.6911
212 2 -1.17457 -12.5967 51.3021
532 1 -6.07904 -16.1721 45.578
533 2 -7.07258 -15.5999 45.4018
489 2 63.061 -14.0757 -19.9383
534 2 -5.0855 -16.7443 45.7541
211 1 -0.0815229 -12.3403 51.5938
320 2 -17.1871 34.8961 16.5101
497 2 -10.6538 27.7507 15.8324
18 2 21.9305 -3.25592 -21.8874
16 1 22.5436 -3.19102 -20.9048
501 2 26.1941 32.8997 13.8287
43 1 19.2107 31.6637 -18.4923
134 2 18.3794 -7.0239 48.0466
17 2 23.1567 -3.12613 -19.9222
135 2 18.9867 -6.89283 50.2818
496 1 -10.6665 28.6096 15.0528
498 2 -10.6793 29.4685 14.2732
45 2 20.3486 31.4387 -18.482
133 1 18.6831 -6.95836 49.1642
319 1 -17.8837 35.1614 15.6213
302 2 -11.9757 35.9741 11.7111
44 2 18.0728 31.8887 -18.5026
345 2 -3.36456 32.8224 10.1315
138 2 33.2105 31.9877 13.1862
87 2 -8.01379 32.0375 46.8859
85 1 -7.63502 31.0256 46.4638
499 1 27.2944 32.5687 13.988
500 2 28.3947 32.2377 14.1473
136 1 32.4877 32.8617 13.4296
161 2 64.9492 -0.312141 10.5608
86 2 -7.25624 30.0137 46.0417
137 2 31.765 33.7358 13.6731
6 2 27.9417 35.5447 -21.3375
343 1 -3.7405 33.1061 9.07142
470 2 25.7204 -14.2216 21.5133
469 1 25.0013 -15.0457 21.8999
471 2 24.2822 -15.8697 22.2865
93 2 24.9964 19.0698 24.9751
91 1 26.0525 19.1028 24.4962
249 2 21.9808 19.5211 20.0291
312 2 25.8104 24.7442 56.1399
73 1 -15.6848 -17.2592 25.7155
247 1 22.0775 18.5952 20.7212
310 1 25.4711 23.9924 55.3242
292 1 60.3796 21.5941 26.7727
193 1 21.995 -10.7169 -10.5867
223 1 -17.7053 60.5323 19.8709
195 2 22.8783 -10.6249 -11.3329
311 2 25.1318 23.2406 54.5086
293 2 59.2663 21.2717 26.7263
241 1 21.9392 24.4702 21.8642
75 2 -16.11 -16.287 25.2466
243 2 22.8916 23.8175 21.976
194 2 21.1117 -10.8089 -9.8405
224 2 -17.4234 59.5898 19.2562
225 2 -17.9872 61.4748 20.4855
191 2 26.8734 25.8112 23.7395
190 1 26.0899 26.6118 23.4384
242 2 20.9868 25.1229 21.7524
294 2 61.493 21.9165 26.8191
433 1 28.1846 19.5351 19.7921
434 2 27.0961 19.2791 20.101
435 2 29.273 19.7911 19.4833
197 2 29.6566 25.1601 25.4416
196 1 28.7435 25.4228 26.1071
41 2 -38.3122 18.3388 -15.4738
40 1 -37.1951 18.6506 -15.4983
92 2 27.1085 19.1358 24.0174
42 2 -36.0781 18.9625 -15.5228
198 2 27.8305 25.6856 26.7726
495 2 19.3459 -0.418968 61.8282
531 2 19.5399 -7.46586 55.0663
529 1 20.5644 -6.99786 55.3438
547 1 -11.5325 -4.02737 21.6941
530 2 21.5889 -6.52986 55.6213
494 2 20.6875 -1.29904 60.1524
493 1 20.0167 -0.859002 60.9903
548 2 -11.6446 -3.86652 20.5508
192 2 25.3063 27.4124 23.1373
549 2 -11.4204 -4.18822 22.8374
333 2 18.7498 -6.64261 -10.237
425 2 -0.378023 35.3551 19.192
129 2 -5.84607 35.1115 18.2652
127 1 -6.7838 34.4353 18.1701
128 2 -7.72152 33.7592 18.0751
557 2 20.2661 25.3529 71.6198
556 1 19.6766 24.4112 71.2862
558 2 19.0872 23.4695 70.9526
268 1 57.2193 35.4501 -1.11673
269 2 56.8238 34.5689 -0.474275
541 1 20.7082 -7.19764 31.3035
542 2 21.19 -8.19937 31.6351
543 2 20.2263 -6.19591 30.9719
429 2 23.7972 34.9298 28.8033
587 2 21.428 35.9709 31.5041
221 2 18.7178 32.6853 -0.839174
427 1 23.0971 35.1903 27.9159
428 2 22.3971 35.4508 27.0284
146 2 -1.2235 29.4403 -7.06934
359 2 -5.20754 -7.21535 28.3868
358 1 -4.88697 -6.50787 29.2484
360 2 -4.5664 -5.80039 30.1099
278 2 27.5544 35.4612 32.8532
147 2 -0.267959 31.1925 -5.88642
145 1 -0.745729 30.3164 -6.47788
ITEM: TIMESTEP
10000
ITEM: NUMBER OF ATOMS
600
ITEM: BOX BOUNDS pp pp pp
0.0000000000000000e+00 3.6000000000000000e+01
0.0000000000000000e+00 3.6000000000000000e+01
0.0000000000000000e+00 3.6000000000000000e+01
ITEM: ATOMS id type xu yu zu
136 1 36.829 36.2321 7.25425
424 1 0.673138 50.8454 0.89436
322 1 45.1433 -27.4089 0.0626793
137 2 36.0358 37.0378 7.51379
31 1 12.9142 10.0759 1.3668
32 2 12.4449 9.01859 1.28105
529 1 17.9083 -30.4743 36.3107
33 2 13.3836 11.1333 1.45254
426 2 1.37324 51.5125 0.253725
229 1 49.5027 37.7348 80.0945
230 2 48.5233 37.5375 80.6839
231 2 50.4821 37.9321 79.505
246 2 52.5522 38.3261 2.30197
244 1 52.7027 37.8431 1.25812
506 2 -18.3526 38.2804 5.56898
507 2 -19.8192 39.9108 6.32617
200 2 -22.3841 -20.3809 36.3054
505 1 -19.0859 39.0956 5.94758
245 2 52.8532 37.3601 0.214269
324 2 45.2882 -26.3512 0.516501
258 2 13.5377 5.34109 8.83957
480 2 3.30486 47.8339 47.3141
34 1 42.2025 11.7828 52.2111
36 2 42.729 12.4247 53.0213
584 2 -21.1522 9.73453 14.2106
276 2 51.4926 4.01913 13.7114
256 1 14.2608 4.82794 9.5875
257 2 14.9839 4.31478 10.3354
340 1 10.6012 5.51874 50.0038
23 2 17.2679 3.08871 17.4103
341 2 11.0305 5.00325 50.9501
342 2 10.1719 6.03423 49.0575
585 2 -23.1203 9.44559 13.0166
274 1 52.3906 4.68515 14.0206
22 1 17.3881 2.18901 16.688
583 1 -22.1362 9.59006 13.6136
478 1 4.14607 47.0708 47.0781
35 2 41.6761 11.1409 51.4009
228 2 7.28532 17.3328 11.1112
227 2 8.7321 17.8121 12.8604
226 1 8.00871 17.5725 11.9858
224 2 -18.6668 42.7209 11.5499
479 2 4.98727 46.3077 46.8421
150 2 14.0224 -22.0961 17.8142
24 2 17.5083 1.28931 15.9657
275 2 53.2886 5.35118 14.3299
104 2 51.0775 7.1469 -17.3625
561 2 16.2574 0.602001 -13.1008
103 1 51.8375 6.50712 -16.7637
59 2 -61.5695 -21.6662 -17.4071
105 2 52.5976 5.86734 -16.1649
58 1 -61.3166 -20.7007 -16.8159
149 2 12.4662 -23.7599 18.2528
30 2 17.537 11.5231 24.3767
406 1 -25.5154 5.98235 26.6
389 2 -21.9198 14.9858 21.0681
521 2 37.6743 17.8662 63.0483
116 2 51.3399 -27.0965 -11.4583
407 2 -24.4015 5.69105 26.7414
60 2 -61.0637 -19.7353 -16.2246
272 2 48.6494 46.7147 -9.19405
115 1 51.566 -28.0238 -10.7991
28 1 17.0137 11.1464 23.4124
117 2 51.7921 -28.9511 -10.1399
271 1 49.173 47.688 -9.54639
390 2 -19.7951 14.146 20.6643
388 1 -20.8574 14.5659 20.8662
562 1 17.5914 50.8497 26.4434
418 1 43.246 45.764 56.815
563 2 17.3956 51.3655 25.423
273 2 49.6967 48.6613 -9.89872
148 1 13.2443 -22.928 18.0335
408 2 -26.6292 6.27365 26.4585
420 2 42.3531 46.4441 56.5218
419 2 44.1388 45.084 57.1082
29 2 16.4904 10.7696 22.4481
112 1 3.49434 5.00404 31.2026
114 2 3.22943 4.22996 32.0249
113 2 3.75924 5.77813 30.3803
50 2 5.69151 38.1082 29.6331
49 1 5.02037 37.2261 29.9752
51 2 4.34922 36.3439 30.3172
490 1 16.1776 -29.8781 28.5115
492 2 16.337 -30.9869 28.2104
491 2 16.0183 -28.7692 28.8127
448 1 7.43471 42.2605 67.2399
19 1 49.4168 38.683 100.193
450 2 8.20686 42.2941 66.3749
449 2 6.66257 42.2268 68.1049
188 2 46.7071 8.26507 28.5975
207 2 44.3086 14.2954 34.7307
205 1 44.902 13.3012 34.8022
510 2 41.9008 13.1025 32.67
520 1 37.0791 16.8794 63.1808
509 2 39.9494 14.1142 31.9277
508 1 40.9251 13.6084 32.2989
21 2 50.0615 38.7406 101.156
42 2 -35.3352 49.9963 -2.8779
543 2 11.5996 -20.5124 29.1713
77 2 10.3019 49.5819 -3.68904
189 2 46.2027 10.2767 29.6373
541 1 11.4739 -21.5761 28.7259
451 1 13.8361 11.1449 34.3063
255 2 12.6541 11.0574 31.1491
452 2 12.6818 11.1608 34.4192
453 2 14.9905 11.129 34.1935
254 2 14.2988 12.1881 29.9664
253 1 13.4765 11.6227 30.5578
40 1 -35.4268 50.4841 -3.92638
542 2 11.3482 -22.6398 28.2805
76 1 11.2655 50.202 -3.86886
78 2 12.2292 50.8222 -4.04868
41 2 -35.5183 50.9719 -4.97486
187 1 46.4549 9.2709 29.1174
206 2 45.4954 12.307 34.8736
323 2 44.9983 -28.4665 -0.391143
522 2 36.4839 15.8926 63.3133
199 1 -22.936 -21.1103 35.5918
201 2 -23.4879 -21.8396 34.8783
564 2 17.7872 50.3339 27.4638
304 1 -21.9332 16.1956 63.4904
306 2 -20.8965 15.8567 63.8852
294 2 53.7932 8.43278 33.2319
530 2 17.5915 -29.4148 35.9603
20 2 48.7722 38.6254 99.2308
305 2 -22.97 16.5345 63.0957
534 2 1.72378 -14.8742 36.6204
502 1 39.7389 -15.2879 8.81362
138 2 37.6221 35.4264 6.99472
411 2 12.0282 20.1576 0.205153
82 1 13.6086 -6.46193 38.0565
195 2 9.29486 -9.912 2.48252
472 1 36.0453 59.2859 5.14912
428 2 12.7484 35.1783 42.7184
576 2 80.8155 -6.55897 41.0161
265 1 44.2812 54.9243 0.276497
267 2 43.7772 54.438 1.20119
598 1 17.3608 33.493 -30.0586
474 2 36.3046 60.4104 5.26647
193 1 8.90449 -9.81281 1.3947
591 2 10.1958 19.9303 -28.0628
590 2 12.1121 21.1325 -28.5773
589 1 11.154 20.5314 -28.32
551 2 -20.9553 98.1105 1.76604
550 1 -20.0469 98.4061 2.42409
600 2 16.5616 34.2431 -29.6787
410 2 10.3225 21.5863 0.862304
409 1 11.1754 20.8719 0.533729
179 2 -23.7834 24.4151 40.5779
552 2 -19.1385 98.7016 3.08214
558 2 0.699563 32.5319 73.3377
180 2 -24.3969 22.2018 40.2497
599 2 18.1599 32.7429 -30.4384
83 2 12.4732 -6.36158 38.2719
178 1 -24.0901 23.3084 40.4138
427 1 13.1536 34.5669 41.8198
194 2 8.51412 -9.71363 0.306865
574 1 81.0194 -5.47143 40.6678
575 2 81.2234 -4.3839 40.3196
556 1 0.172873 31.6445 72.8079
211 1 5.87539 -8.06691 75.7832
84 2 14.744 -6.56229 37.841
213 2 4.83448 -7.80107 76.2207
47 2 3.59922 33.5778 3.58456
204 2 -20.4667 31.9833 -32.2937
48 2 4.46845 31.949 4.9894
212 2 6.91631 -8.33276 75.3457
46 1 4.03384 32.7634 4.28698
203 2 -19.6997 33.8022 -33.5126
367 1 16.1184 30.0828 6.24086
369 2 16.4433 29.0314 5.87405
368 2 15.7935 31.1342 6.60768
202 1 -20.0832 32.8928 -32.9032
429 2 13.5588 33.9555 40.9211
503 2 40.83 -15.3896 8.43301
414 2 -19.9665 -4.41581 36.0602
72 2 53.0849 29.9943 -22.8172
62 2 76.1128 20.6045 12.1529
63 2 78.277 20.9115 12.9302
61 1 77.1949 20.758 12.5416
70 1 52.1378 30.6582 -22.7285
376 1 76.53 -4.0728 11.5103
504 2 38.6478 -15.1863 9.19423
463 1 9.48265 22.1396 10.9501
465 2 10.3924 22.5689 11.5278
464 2 8.5729 21.7104 10.3725
378 2 76.258 -3.85674 12.617
71 2 51.1907 31.3221 -22.6398
377 2 76.8019 -4.28886 10.4035
45 2 17.5937 19.4169 -25.1512
560 2 17.8941 -1.03432 -13.263
462 2 1.8979 26.1069 18.2063
460 1 1.83088 25.7936 19.3212
559 1 17.0757 -0.21616 -13.1819
74 2 5.788 -2.51171 20.1494
386 2 49.7092 -40.44 26.8096
209 2 47.7397 -9.95276 62.1601
461 2 1.76386 25.4803 20.436
208 1 46.6633 -10.3776 62.0806
210 2 45.5868 -10.8025 62.0011
73 1 5.11473 -2.18512 21.0358
75 2 4.44146 -1.85854 21.9221
397 1 6.79639 21.1699 -2.22222
399 2 6.19167 21.0635 -1.23804
289 1 42.0572 27.6648 70.4597
385 1 50.3062 -40.9734 27.6491
444 2 8.88576 25.3637 31.7035
442 1 9.31769 26.259 32.3014
313 1 6.50648 56.8582 65.7214
315 2 5.8563 56.2844 66.4919
443 2 9.74963 27.1543 32.8993
314 2 7.15666 57.432 64.9509
456 2 -21.6789 -9.14945 -3.35697
398 2 7.4011 21.2763 -3.20639
241 1 16.4003 27.3344 30.6072
396 2 11.2955 33.1784 33.7338
350 2 13.9337 24.1082 -7.87827
349 1 14.6594 24.3378 -7.0029
455 2 -23.342 -10.5982 -2.63745
159 2 9.932 -6.02427 -1.78469
454 1 -22.5104 -9.87382 -2.99721
242 2 15.4869 27.4094 29.8961
351 2 15.385 24.5675 -6.12754
243 2 17.3136 27.2595 31.3184
533 2 0.0937563 -14.9911 34.9736
290 2 42.5273 28.6391 70.0409
9 2 -0.00596159 62.5435 -0.0337286
565 1 2.99029 99.0734 -5.44243
567 2 4.10794 99.0545 -5.13245
566 2 1.87263 99.0924 -5.75242
355 1 2.2889 21.5449 -6.89965
356 2 2.56286 22.3046 -7.73237
282 2 38.5217 18.9421 -4.06221
395 2 12.3657 32.076 35.4722
394 1 11.8306 32.6272 34.603
158 2 11.4028 -7.38778 -0.618458
157 1 10.6674 -6.70603 -1.20158
280 1 38.6573 19.7661 -3.25713
357 2 2.01494 20.7852 -6.06692
266 2 44.7852 55.4107 -0.648197
412 1 -18.9455 -3.89516 35.8806
281 2 38.7928 20.5902 -2.45206
122 2 -18.7487 54.3534 -5.97791
291 2 41.5871 26.6906 70.8785
387 2 50.9032 -41.5067 28.4886
532 1 0.908765 -14.9326 35.797
3 2 30.994 17.0231 1.68134
169 1 21.2858 38.2273 3.46328
171 2 22.1757 37.4931 3.34247
170 2 20.3959 38.9615 3.58409
531 2 18.2252 -31.5337 36.6611
312 2 28.3382 12.9684 39.1726
425 2 -0.0269627 50.1782 1.53499
519 2 -2.91784 46.8679 6.30437
370 1 70.3522 4.21342 43.0313
517 1 -2.42465 46.5174 7.29409
518 2 -1.93147 46.1669 8.28381
14 2 34.463 -26.4295 0.346012
371 2 71.2779 4.60891 42.455
217 1 -2.02778 38.6241 3.66292
153 2 -9.25357 11.4471 7.53411
152 2 -7.26809 12.1984 8.47001
597 2 22.6667 -22.4977 2.85359
595 1 23.3458 -23.3637 3.22013
596 2 24.0249 -24.2298 3.58666
164 2 -4.33125 36.6643 38.3995
477 2 -16.5268 5.23867 5.75513
198 2 20.7766 16.0148 36.7409
69 2 29.8931 17.6589 78.612
67 1 28.9456 17.8436 79.2553
476 2 -14.313 5.13534 5.0688
151 1 -8.26083 11.8228 8.00206
475 1 -15.4199 5.18701 5.41196
196 1 19.7942 16.2899 36.1889
300 2 -2.27834 -18.1159 5.71422
219 2 -2.19764 37.6985 4.34114
2 2 33.1753 16.6827 0.968237
311 2 29.6999 13.0587 37.2965
218 2 -1.85792 39.5497 2.9847
372 2 69.4265 3.81793 43.6077
310 1 29.0191 13.0136 38.2345
1 1 32.0847 16.8529 1.32479
174 2 21.6733 5.16544 45.8213
338 2 18.7439 38.6852 13.4836
337 1 19.5795 38.4239 14.2444
339 2 20.4152 38.1625 15.0053
375 2 20.8265 6.32817 16.692
373 1 21.213 5.86933 15.6992
374 2 21.5996 5.4105 14.7064
570 2 -11.4082 4.21215 -56.3278
569 2 -10.2363 2.53221 -57.4172
568 1 -10.8222 3.37218 -56.8725
403 1 22.9728 9.26227 48.5733
405 2 23.3763 9.90013 47.6924
404 2 22.5693 8.62441 49.4541
44 2 18.6651 17.476 -25.8349
471 2 27.2335 -26.6198 15.3933
167 2 23.3993 36.8359 50.9188
173 2 22.7537 3.15648 46.2449
172 1 22.2135 4.16096 46.0331
39 2 -4.03741 -18.3542 13.3894
553 1 60.1419 36.386 9.29748
56 2 32.5566 47.2251 14.4113
55 1 32.2632 48.2521 13.9586
470 2 25.6985 -25.3587 16.5915
554 2 61.1753 36.73 9.69674
327 2 31.9974 48.4547 9.93513
469 1 26.466 -25.9892 15.9924
296 2 -7.97563 13.3802 48.2974
233 2 30.4495 17.9299 16.6217
511 1 31.5114 6.90372 -20.9111
513 2 31.5108 8.05145 -20.7427
512 2 31.5119 5.756 -21.0794
303 2 -9.74683 36.1225 16.1533
111 2 -3.2419 44.0778 10.4176
109 1 -4.19315 44.7352 10.3247
572 2 21.7386 49.4048 51.9711
571 1 22.2513 49.0322 50.9996
573 2 22.7639 48.6596 50.028
110 2 -5.1444 45.3925 10.2318
225 2 -16.5508 43.5311 11.0514
223 1 -17.6088 43.126 11.3007
325 1 31.3648 49.3942 10.1858
57 2 31.9699 49.279 13.5058
326 2 30.7323 50.3337 10.4365
160 1 61.5481 13.7664 17.0114
162 2 62.4424 13.4811 17.6928
161 2 60.6537 14.0518 16.3299
86 2 -2.76265 50.8322 53.5769
87 2 -1.66845 49.0763 52.5272
536 2 -9.17971 16.179 -23.4644
37 1 -3.52676 -19.2872 13.8524
85 1 -2.21555 49.9542 53.052
535 1 -8.96725 16.8878 -22.5711
458 2 -6.70777 49.6517 -20.8444
295 1 -8.50142 13.6906 47.3111
457 1 -6.43466 50.7053 -21.2455
38 2 -3.0161 -20.2203 14.3153
459 2 -6.16155 51.759 -21.6466
297 2 -9.02721 14.0009 46.3248
330 2 21.4216 10.1845 16.4065
328 1 20.3139 10.2774 16.0748
329 2 19.2062 10.3704 15.7432
537 2 -8.7548 17.5966 -21.6777
237 2 -14.3733 0.174926 21.2763
320 2 -13.5728 40.2598 18.6716
319 1 -12.7573 40.7697 19.3202
421 1 60.9309 2.56338 57.6976
422 2 61.8928 2.04953 57.3022
423 2 59.969 3.07722 58.0929
94 1 59.6478 2.54907 25.5785
95 2 59.9867 1.55271 25.0907
190 1 22.7743 17.265 25.138
466 1 27.0163 10.8604 -9.99285
235 1 -15.4303 0.619024 21.4523
285 2 19.2937 6.30652 -12.5376
283 1 19.2821 5.1467 -12.5541
284 2 19.2705 3.98687 -12.5705
383 2 -12.1996 36.8359 -17.7673
145 1 -13.1046 44.6421 -12.4639
130 1 30.2967 -20.8119 -15.4512
447 2 20.1595 0.495767 18.4381
96 2 59.3088 3.54543 26.0663
131 2 30.9042 -20.3176 -14.5956
468 2 27.6226 11.8033 -9.6947
146 2 -13.5685 44.6082 -11.4012
91 1 25.4044 15.5575 22.5144
26 2 28.1934 0.567484 24.7803
321 2 -11.9419 41.2795 19.9688
132 2 29.6891 -21.3062 -16.3069
92 2 24.4208 15.0261 22.205
361 1 23.3207 11.4804 19.2367
362 2 22.6238 10.8662 19.9315
363 2 24.0176 12.0946 18.5419
93 2 26.388 16.0889 22.8237
147 2 -12.6408 44.676 -13.5266