LAMMPS data file for n2/co2

768 atoms
4 atom types
512 bonds
2 bond types

0 34.943219  xlo xhi
0 34.943219  ylo yhi
0 34.943219  zlo zhi

Masses

1 12.0107
2 15.9999
3 28.0134
4 2

Pair Coeffs # lj/cut/coul/long

1 0.0536548 2.8
2 0.15699 3.05
3 0 0
4 0.0715394 3.31

Atoms # full

1 1 1 0.7 17.714501 27.178898 31.136799 0 0 0
2 1 2 -0.35 17.22008 26.449384 30.382506 0 0 0
3 1 2 -0.35 18.208922 27.908412 31.891092 0 0 0
4 2 1 0.7 16.76177 14.233837 27.598908 0 0 0
5 2 2 -0.35 15.627821 13.989466 27.60533 0 0 0
6 2 2 -0.35 17.89572 14.478208 27.592486 0 0 0
7 3 1 0.7 8.836082 19.086059 20.517778 0 0 0
8 3 2 -0.35 8.322325 18.610352 19.592923 0 0 0
9 3 2 -0.35 9.349839 19.561767 21.442633 0 0 0
10 4 1 0.7 11.690002 5.553706 26.309824 0 0 0
11 4 2 -0.35 10.885379 4.726546 26.428094 0 0 0
12 4 2 -0.35 12.494626 6.380867 26.191555 0 0 0
13 5 1 0.7 10.895414 28.888361 19.180735 0 0 0
14 5 2 -0.35 9.903793 29.085743 19.749355 0 0 0
15 5 2 -0.35 11.887034 28.690978 18.612115 0 0 0
16 6 1 0.7 20.311524 3.021032 16.076512 0 0 0
17 6 2 -0.35 21.152484 2.427912 15.541166 0 0 0
18 6 2 -0.35 19.470565 3.614152 16.611858 0 0 0
19 7 1 0.7 2.420084 9.592335 22.186215 0 0 0
20 7 2 -0.35 2.722707 9.009787 21.229838 0 0 0
21 7 2 -0.35 2.117461 10.174883 23.142592 0 0 0
22 8 1 0.7 25.595483 6.564761 8.468033 0 0 0
23 8 2 -0.35 25.524323 5.480006 8.872806 0 0 0
24 8 2 -0.35 25.666644 7.649517 8.063259 0 0 0
25 9 1 0.7 26.99721 2.965959 3.441716 0 0 0
26 9 2 -0.35 26.664948 2.036775 4.051485 0 0 0
27 9 2 -0.35 27.329472 3.895144 2.831948 0 0 0
28 10 1 0.7 29.353965 10.452282 2.471864 0 0 0
29 10 2 -0.35 28.407154 11.090002 2.677929 0 0 0
30 10 2 -0.35 30.300775 9.814562 2.265798 0 0 0
31 11 1 0.7 5.459475 10.138777 30.141315 0 0 0
32 11 2 -0.35 5.486012 9.650898 31.193394 0 0 0
33 11 2 -0.35 5.432938 10.626655 29.089236 0 0 0
34 12 1 0.7 19.833483 14.785956 23.648955 0 0 0
35 12 2 -0.35 20.510421 13.845995 23.710828 0 0 0
36 12 2 -0.35 19.156545 15.725917 23.587083 0 0 0
37 13 1 0.7 24.50426 3.164282 4.731058 0 0 0
38 13 2 -0.35 24.285387 3.358059 3.608496 0 0 0
39 13 2 -0.35 24.723133 2.970505 5.85362 0 0 0
40 14 1 0.7 22.418568 14.602467 11.773882 0 0 0
41 14 2 -0.35 23.543373 14.879471 11.713203 0 0 0
42 14 2 -0.35 21.293762 14.325463 11.834561 0 0 0
43 15 1 0.7 27.917156 24.623427 28.867134 0 0 0
44 15 2 -0.35 28.045168 25.480357 28.095846 0 0 0
45 15 2 -0.35 27.789143 23.766498 29.638421 0 0 0
46 16 1 0.7 12.850785 8.155093 16.462088 0 0 0
47 16 2 -0.35 12.087778 7.285657 16.375478 0 0 0
48 16 2 -0.35 13.613792 9.024529 16.548698 0 0 0
49 17 1 0.7 16.881651 9.064199 11.11184 0 0 0
50 17 2 -0.35 16.984747 9.155751 12.263617 0 0 0
51 17 2 -0.35 16.778556 8.972648 9.960063 0 0 0
52 18 1 0.7 15.866507 12.452198 13.810726 0 0 0
53 18 2 -0.35 15.828903 13.349773 14.544583 0 0 0
54 18 2 -0.35 15.904111 11.554624 13.076869 0 0 0
55 19 1 0.7 23.667573 13.53967 23.520197 0 0 0
56 19 2 -0.35 24.567311 13.97857 22.934159 0 0 0
57 19 2 -0.35 22.767836 13.100771 24.106234 0 0 0
58 20 1 0.7 15.472388 21.791677 24.379583 0 0 0
59 20 2 -0.35 15.302997 20.916923 25.122358 0 0 0
60 20 2 -0.35 15.641779 22.66643 23.636809 0 0 0
61 21 1 0.7 20.47365 15.221801 20.892084 0 0 0
62 21 2 -0.35 21.413433 15.012459 21.539064 0 0 0
63 21 2 -0.35 19.533866 15.431143 20.245104 0 0 0
64 22 1 0.7 30.419019 22.231198 19.294719 0 0 0
65 22 2 -0.35 30.453348 22.175263 18.136577 0 0 0
66 22 2 -0.35 30.38469 22.287133 20.452861 0 0 0
67 23 1 0.7 26.488401 17.502656 25.985574 0 0 0
68 23 2 -0.35 25.698249 16.768261 25.55905 0 0 0
69 23 2 -0.35 27.278553 18.237052 26.412099 0 0 0
70 24 1 0.7 22.398882 4.423617 14.379515 0 0 0
71 24 2 -0.35 22.584148 3.30974 14.113898 0 0 0
72 24 2 -0.35 22.213615 5.537495 14.645132 0 0 0
73 25 1 0.7 18.562174 29.815484 30.79183 0 0 0
74 25 2 -0.35 17.516681 29.906099 30.297531 0 0 0
75 25 2 -0.35 19.607668 29.724869 31.286129 0 0 0
76 26 1 0.7 5.312093 18.104092 10.933296 0 0 0
77 26 2 -0.35 5.652316 17.716861 9.894113 0 0 0
78 26 2 -0.35 4.971869 18.491322 11.972478 0 0 0
79 27 1 0.7 29.18039 4.31793 23.636272 0 0 0
80 27 2 -0.35 29.62054 3.379088 24.156316 0 0 0
81 27 2 -0.35 28.740241 5.256771 23.116228 0 0 0
82 28 1 0.7 8.713358 15.663214 18.32302 0 0 0
83 28 2 -0.35 8.987788 16.181512 19.323847 0 0 0
84 28 2 -0.35 8.438927 15.144916 17.322193 0 0 0
85 29 1 0.7 14.378843 2.854978 7.32199 0 0 0
86 29 2 -0.35 14.96644 2.055141 7.922482 0 0 0
87 29 2 -0.35 13.791245 3.654814 6.721498 0 0 0
88 30 1 0.7 12.860711 23.553975 6.681682 0 0 0
89 30 2 -0.35 13.429733 22.791347 7.345167 0 0 0
90 30 2 -0.35 12.291689 24.316603 6.018197 0 0 0
91 31 1 0.7 10.554216 31.03673 27.026874 0 0 0
92 31 2 -0.35 10.599322 31.065148 25.8681 0 0 0
93 31 2 -0.35 10.509109 31.008311 28.185649 0 0 0
94 32 1 0.7 15.294048 22.730125 4.909425 0 0 0
95 32 2 -0.35 15.276062 21.603238 5.184021 0 0 0
96 32 2 -0.35 15.312035 23.857011 4.634829 0 0 0
97 33 1 0.7 30.486004 11.843364 4.932586 0 0 0
98 33 2 -0.35 29.931013 10.970501 5.457654 0 0 0
99 33 2 -0.35 31.040995 12.716226 4.407518 0 0 0
100 34 1 0.7 23.707652 6.480414 10.703665 0 0 0
101 34 2 -0.35 23.698459 5.433261 10.20468 0 0 0
102 34 2 -0.35 23.716845 7.527567 11.202649 0 0 0
103 35 1 0.7 7.523205 7.570983 5.214526 0 0 0
104 35 2 -0.35 7.929869 7.891701 6.252488 0 0 0
105 35 2 -0.35 7.116541 7.250264 4.176565 0 0 0
106 36 1 0.7 24.55279 22.664927 19.531589 0 0 0
107 36 2 -0.35 24.801132 21.544617 19.361784 0 0 0
108 36 2 -0.35 24.304449 23.785236 19.701394 0 0 0
109 37 1 0.7 23.611047 25.419685 11.310263 0 0 0
110 37 2 -0.35 24.632348 24.871177 11.351286 0 0 0
111 37 2 -0.35 22.589746 25.968192 11.269239 0 0 0
112 38 1 0.7 15.705184 15.979574 18.791304 0 0 0
113 38 2 -0.35 15.514587 16.450373 19.834195 0 0 0
114 38 2 -0.35 15.895781 15.508775 17.748414 0 0 0
115 39 1 0.7 24.023616 5.359364 25.833041 0 0 0
116 39 2 -0.35 24.718524 5.465246 26.755804 0 0 0
117 39 2 -0.35 23.328708 5.253481 24.910278 0 0 0
118 40 1 0.7 27.623919 15.630116 22.338689 0 0 0
119 40 2 -0.35 28.319908 15.323298 21.462868 0 0 0
120 40 2 -0.35 26.927931 15.936934 23.21451 0 0 0
121 41 1 0.7 21.266532 10.553461 24.103336 0 0 0
122 41 2 -0.35 20.45889 11.360651 23.898988 0 0 0
123 41 2 -0.35 22.074175 9.746272 24.307683 0 0 0
124 42 1 0.7 8.394298 5.792745 29.955092 0 0 0
125 42 2 -0.35 7.590409 5.745799 29.120132 0 0 0
126 42 2 -0.35 9.198187 5.83969 30.790052 0 0 0
127 43 1 0.7 15.059773 14.717673 21.644143 0 0 0
128 43 2 -0.35 15.363937 15.787447 21.973791 0 0 0
129 43 2 -0.35 14.755609 13.647899 21.314495 0 0 0
130 44 1 0.7 14.669554 6.891202 26.640399 0 0 0
131 44 2 -0.35 14.840024 6.116352 25.794144 0 0 0
132 44 2 -0.35 14.499084 7.666052 27.486655 0 0 0
133 45 1 0.7 10.193182 11.636482 21.068978 0 0 0
134 45 2 -0.35 9.781665 12.64803 21.460164 0 0 0
135 45 2 -0.35 10.604699 10.624935 20.677792 0 0 0
136 46 1 0.7 17.405173 26.916979 14.252502 0 0 0
137 46 2 -0.35 18.399546 27.247276 14.750222 0 0 0
138 46 2 -0.35 16.4108 26.586682 13.754781 0 0 0
139 47 1 0.7 31.199498 29.624564 2.631313 0 0 0
140 47 2 -0.35 30.405662 28.885442 2.220068 0 0 0
141 47 2 -0.35 31.993335 30.363686 3.042558 0 0 0
142 48 1 0.7 14.989305 6.202957 16.954242 0 0 0
143 48 2 -0.35 14.171629 6.059327 16.144072 0 0 0
144 48 2 -0.35 15.806981 6.346587 17.764413 0 0 0
145 49 1 0.7 30.283191 28.500359 29.552588 0 0 0
146 49 2 -0.35 29.298365 28.082703 30.001233 0 0 0
147 49 2 -0.35 31.268016 28.918015 29.103943 0 0 0
148 50 1 0.7 22.116176 15.204668 29.089911 0 0 0
149 50 2 -0.35 22.41517 16.124593 28.449644 0 0 0
150 50 2 -0.35 21.817183 14.284744 29.730177 0 0 0
151 51 1 0.7 14.977165 10.095647 8.646995 0 0 0
152 51 2 -0.35 14.453755 9.116078 8.981789 0 0 0
153 51 2 -0.35 15.500575 11.075215 8.3122 0 0 0
154 52 1 0.7 6.388496 14.182371 14.107181 0 0 0
155 52 2 -0.35 6.88907 13.271165 13.592665 0 0 0
156 52 2 -0.35 5.887921 15.093578 14.621697 0 0 0
157 53 1 0.7 29.518424 14.495306 8.357318 0 0 0
158 53 2 -0.35 29.908832 15.069639 9.28647 0 0 0
159 53 2 -0.35 29.128016 13.920974 7.428166 0 0 0
160 54 1 0.7 21.143495 20.943267 10.429494 0 0 0
161 54 2 -0.35 22.24696 20.788305 10.107077 0 0 0
162 54 2 -0.35 20.040031 21.09823 10.751911 0 0 0
163 55 1 0.7 22.739823 8.750286 3.306705 0 0 0
164 55 2 -0.35 22.307883 9.723671 3.766649 0 0 0
165 55 2 -0.35 23.171762 7.7769 2.846761 0 0 0
166 56 1 0.7 18.761411 4.790418 12.348534 0 0 0
167 56 2 -0.35 18.411143 5.295231 11.364625 0 0 0
168 56 2 -0.35 19.111679 4.285605 13.332443 0 0 0
169 57 1 0.7 18.063761 26.553436 18.462135 0 0 0
170 57 2 -0.35 18.857263 26.74233 17.637348 0 0 0
171 57 2 -0.35 17.27026 26.364541 19.286922 0 0 0
172 58 1 0.7 5.802951 7.824845 23.529381 0 0 0
173 58 2 -0.35 6.44875 8.730714 23.200832 0 0 0
174 58 2 -0.35 5.157151 6.918976 23.85793 0 0 0
175 59 1 0.7 13.52255 24.305955 28.054083 0 0 0
176 59 2 -0.35 12.917429 23.407801 28.469714 0 0 0
177 59 2 -0.35 14.127671 25.204108 27.638452 0 0 0
178 60 1 0.7 20.934175 31.203778 8.605203 0 0 0
179 60 2 -0.35 20.943364 30.416074 7.753711 0 0 0
180 60 2 -0.35 20.924986 31.991482 9.456694 0 0 0
181 61 1 0.7 28.383349 5.028601 6.846126 0 0 0
182 61 2 -0.35 27.858036 4.098891 6.393041 0 0 0
183 61 2 -0.35 28.908662 5.95831 7.299211 0 0 0
184 62 1 0.7 30.406499 12.890348 18.881372 0 0 0
185 62 2 -0.35 31.314048 13.467458 19.315998 0 0 0
186 62 2 -0.35 29.498951 12.313238 18.446746 0 0 0
187 63 1 0.7 11.74797 4.09812 9.573063 0 0 0
188 63 2 -0.35 11.663381 3.464381 8.605169 0 0 0
189 63 2 -0.35 11.83256 4.731859 10.540958 0 0 0
190 64 1 0.7 6.780125 12.86422 30.677456 0 0 0
191 64 2 -0.35 7.306214 11.839403 30.81377 0 0 0
192 64 2 -0.35 6.254037 13.889036 30.541141 0 0 0
193 65 1 0.7 29.795794 24.909132 23.664596 0 0 0
194 65 2 -0.35 29.562103 25.652164 22.805008 0 0 0
195 65 2 -0.35 30.029485 24.1661 24.524184 0 0 0
196 66 1 0.7 28.223664 6.607545 17.164534 0 0 0
197 66 2 -0.35 27.283337 7.28672 17.174859 0 0 0
198 66 2 -0.35 29.163992 5.928371 17.154209 0 0 0
199 67 1 0.7 18.181751 3.037168 30.355781 0 0 0
200 67 2 -0.35 18.583281 2.035143 29.931142 0 0 0
201 67 2 -0.35 17.780222 4.039194 30.780421 0 0 0
202 68 1 0.7 14.079736 30.017873 13.361539 0 0 0
203 68 2 -0.35 14.882217 29.18507 13.271743 0 0 0
204 68 2 -0.35 13.277255 30.850676 13.451336 0 0 0
205 69 1 0.7 29.52481 7.717145 14.497855 0 0 0
206 69 2 -0.35 29.217225 8.49333 13.692543 0 0 0
207 69 2 -0.35 29.832394 6.940959 15.303168 0 0 0
208 70 1 0.7 7.935081 4.437382 5.473044 0 0 0
209 70 2 -0.35 8.640712 4.422958 4.55246 0 0 0
210 70 2 -0.35 7.229449 4.451806 6.393629 0 0 0
211 71 1 0.7 24.026301 26.112383 19.250407 0 0 0
212 71 2 -0.35 24.510894 26.767672 20.075856 0 0 0
213 71 2 -0.35 23.541708 25.457094 18.424958 0 0 0
214 72 1 0.7 5.204528 23.619998 14.445791 0 0 0
215 72 2 -0.35 5.125413 24.763493 14.267583 0 0 0
216 72 2 -0.35 5.283644 22.476502 14.623999 0 0 0
217 73 1 0.7 28.362755 24.241266 21.127928 0 0 0
218 73 2 -0.35 27.535063 24.814665 20.55196 0 0 0
219 73 2 -0.35 29.190447 23.667866 21.703896 0 0 0
220 74 1 0.7 25.69649 8.680081 25.045141 0 0 0
221 74 2 -0.35 25.927422 7.961576 24.16422 0 0 0
222 74 2 -0.35 25.465559 9.398585 25.926062 0 0 0
223 75 1 0.7 10.256828 23.264355 11.31725 0 0 0
224 75 2 -0.35 10.727743 24.299674 11.545186 0 0 0
225 75 2 -0.35 9.785914 22.229037 11.089314 0 0 0
226 76 1 0.7 13.378998 9.251314 19.812146 0 0 0
227 76 2 -0.35 12.443246 8.890918 20.395313 0 0 0
228 76 2 -0.35 14.31475 9.611709 19.228979 0 0 0
229 77 1 0.7 10.768436 7.935736 26.261597 0 0 0
230 77 2 -0.35 10.806694 8.507634 27.270095 0 0 0
231 77 2 -0.35 10.730177 7.363838 25.253099 0 0 0
232 78 1 0.7 7.98059 12.030942 18.308899 0 0 0
233 78 2 -0.35 7.868066 11.216593 19.127297 0 0 0
234 78 2 -0.35 8.093113 12.84529 17.490502 0 0 0
235 79 1 0.7 28.988909 18.358943 29.962306 0 0 0
236 79 2 -0.35 28.072005 18.888856 29.488934 0 0 0
237 79 2 -0.35 29.905812 17.829031 30.435678 0 0 0
238 80 1 0.7 18.471836 14.317735 5.449634 0 0 0
239 80 2 -0.35 17.392337 14.63939 5.726798 0 0 0
240 80 2 -0.35 19.551335 13.996079 5.17247 0 0 0
241 81 1 0.7 31.696995 22.494471 22.460723 0 0 0
242 81 2 -0.35 31.419077 21.387223 22.666545 0 0 0
243 81 2 -0.35 31.974914 23.60172 22.254901 0 0 0
244 82 1 0.7 13.884676 13.069149 4.792233 0 0 0
245 82 2 -0.35 13.426501 12.009565 4.6784 0 0 0
246 82 2 -0.35 14.34285 14.128733 4.906065 0 0 0
247 83 1 0.7 3.068874 20.352648 19.486416 0 0 0
248 83 2 -0.35 3.385375 21.461793 19.609804 0 0 0
249 83 2 -0.35 2.752372 19.243503 19.363029 0 0 0
250 84 1 0.7 30.949623 10.631049 23.259871 0 0 0
251 84 2 -0.35 31.978887 10.626768 23.794844 0 0 0
252 84 2 -0.35 29.920358 10.63533 22.724899 0 0 0
253 85 1 0.7 25.262406 5.590751 6.319052 0 0 0
254 85 2 -0.35 26.223933 5.656551 5.6735 0 0 0
255 85 2 -0.35 24.30088 5.524952 6.964604 0 0 0
256 86 1 0.7 20.231414 16.014657 16.205728 0 0 0
257 86 2 -0.35 20.626533 17.099558 16.317406 0 0 0
258 86 2 -0.35 19.836295 14.929757 16.09405 0 0 0
259 87 1 0.7 26.22111 28.159679 24.682101 0 0 0
260 87 2 -0.35 25.736743 27.25841 25.228638 0 0 0
261 87 2 -0.35 26.705478 29.060948 24.135564 0 0 0
262 88 1 0.7 4.535364 5.251498 2.217032 0 0 0
263 88 2 -0.35 3.517355 5.779949 2.390231 0 0 0
264 88 2 -0.35 5.553373 4.723048 2.043833 0 0 0
265 89 1 0.7 28.103002 20.155207 31.951263 0 0 0
266 89 2 -0.35 27.546739 19.137497 31.972193 0 0 0
267 89 2 -0.35 28.659265 21.172917 31.930333 0 0 0
268 90 1 0.7 25.787092 22.607145 25.462971 0 0 0
269 90 2 -0.35 24.798721 22.258071 24.966111 0 0 0
270 90 2 -0.35 26.775463 22.95622 25.959831 0 0 0
271 91 1 0.7 29.086954 6.67021 31.735675 0 0 0
272 91 2 -0.35 28.406479 7.606533 31.659166 0 0 0
273 91 2 -0.35 29.767429 5.733888 31.812183 0 0 0
274 92 1 0.7 25.342044 27.469709 30.534486 0 0 0
275 92 2 -0.35 24.296612 26.979944 30.647639 0 0 0
276 92 2 -0.35 26.387475 27.959475 30.421332 0 0 0
277 93 1 0.7 29.229164 27.315128 17.072198 0 0 0
278 93 2 -0.35 28.084417 27.277201 16.888578 0 0 0
279 93 2 -0.35 30.373911 27.353054 17.255819 0 0 0
280 94 1 0.7 4.233225 23.181846 22.144993 0 0 0
281 94 2 -0.35 4.05812 22.056369 21.925357 0 0 0
282 94 2 -0.35 4.408329 24.307323 22.36463 0 0 0
283 95 1 0.7 16.394589 23.898969 20.319494 0 0 0
284 95 2 -0.35 17.500962 23.62411 20.533948 0 0 0
285 95 2 -0.35 15.288215 24.173829 20.105039 0 0 0
286 96 1 0.7 29.602844 23.819247 5.996761 0 0 0
287 96 2 -0.35 29.493433 22.665929 6.055797 0 0 0
288 96 2 -0.35 29.712255 24.972566 5.937726 0 0 0
289 97 1 0.7 30.51767 30.192503 6.518148 0 0 0
290 97 2 -0.35 30.807574 29.135064 6.139494 0 0 0
291 97 2 -0.35 30.227766 31.249941 6.896803 0 0 0
292 98 1 0.7 7.217383 22.9769 31.514912 0 0 0
293 98 2 -0.35 7.674478 23.94762 31.955783 0 0 0
294 98 2 -0.35 6.760289 22.00618 31.07404 0 0 0
295 99 1 0.7 31.128397 5.065802 27.813852 0 0 0
296 99 2 -0.35 30.331853 5.030284 28.656382 0 0 0
297 99 2 -0.35 31.92494 5.10132 26.971322 0 0 0
298 100 1 0.7 24.37928 24.204008 13.564241 0 0 0
299 100 2 -0.35 23.942903 23.232573 13.104359 0 0 0
300 100 2 -0.35 24.815656 25.175442 14.024123 0 0 0
301 101 1 0.7 18.035829 11.073032 17.026162 0 0 0
302 101 2 -0.35 17.909681 11.240851 15.885319 0 0 0
303 101 2 -0.35 18.161977 10.905212 18.167005 0 0 0
304 102 1 0.7 23.119761 24.311203 31.484899 0 0 0
305 102 2 -0.35 22.439251 25.205794 31.19817 0 0 0
306 102 2 -0.35 23.800271 23.416612 31.771628 0 0 0
307 103 1 0.7 8.352389 8.761478 27.671296 0 0 0
308 103 2 -0.35 8.587832 8.410503 26.591026 0 0 0
309 103 2 -0.35 8.116946 9.112453 28.751566 0 0 0
310 104 1 0.7 25.035953 28.203205 16.734747 0 0 0
311 104 2 -0.35 24.13485 28.843362 17.086617 0 0 0
312 104 2 -0.35 25.937055 27.563047 16.382876 0 0 0
313 105 1 0.7 30.884926 15.847855 21.326607 0 0 0
314 105 2 -0.35 31.278063 14.761279 21.224639 0 0 0
315 105 2 -0.35 30.491789 16.93443 21.428576 0 0 0
316 106 1 0.7 3.563937 27.568674 29.653026 0 0 0
317 106 2 -0.35 4.607075 27.09069 29.482748 0 0 0
318 106 2 -0.35 2.520799 28.046657 29.823304 0 0 0
319 107 1 0.7 24.840605 9.954425 21.637828 0 0 0
320 107 2 -0.35 24.343068 9.069938 21.07592 0 0 0
321 107 2 -0.35 25.338142 10.838912 22.199735 0 0 0
322 108 1 0.7 10.430607 24.18551 27.15836 0 0 0
323 108 2 -0.35 10.482095 25.326573 26.956058 0 0 0
324 108 2 -0.35 10.379118 23.044448 27.360663 0 0 0
325 109 1 0.7 6.641429 26.538324 13.409335 0 0 0
326 109 2 -0.35 7.771565 26.35651 13.597314 0 0 0
327 109 2 -0.35 5.511293 26.720138 13.221356 0 0 0
328 110 1 0.7 17.342732 3.054276 14.885403 0 0 0
329 110 2 -0.35 18.094807 2.172236 14.840815 0 0 0
330 110 2 -0.35 16.590657 3.936317 14.929991 0 0 0
331 111 1 0.7 28.359091 13.005833 11.372518 0 0 0
332 111 2 -0.35 28.991284 12.309119 10.6939 0 0 0
333 111 2 -0.35 27.726899 13.702547 12.051136 0 0 0
334 112 1 0.7 29.557279 18.857018 27.726387 0 0 0
335 112 2 -0.35 30.044066 17.804418 27.700465 0 0 0
336 112 2 -0.35 29.070491 19.909617 27.752309 0 0 0
337 113 1 0.7 13.84444 6.338679 20.957332 0 0 0
338 113 2 -0.35 14.230881 6.5781 22.024544 0 0 0
339 113 2 -0.35 13.458 6.099259 19.89012 0 0 0
340 114 1 0.7 20.113645 4.197108 28.359872 0 0 0
341 114 2 -0.35 19.556141 5.208356 28.249576 0 0 0
342 114 2 -0.35 20.671149 3.185859 28.470168 0 0 0
343 115 1 0.7 12.060991 24.65866 17.249497 0 0 0
344 115 2 -0.35 12.768858 25.076624 18.067929 0 0 0
345 115 2 -0.35 11.353124 24.240697 16.431064 0 0 0
346 116 1 0.7 10.816878 18.148711 24.686102 0 0 0
347 116 2 -0.35 11.265894 17.079232 24.671987 0 0 0
348 116 2 -0.35 10.367862 19.218189 24.700216 0 0 0
349 117 1 0.7 8.798373 23.287751 14.0487 0 0 0
350 117 2 -0.35 9.773876 22.84731 14.495921 0 0 0
351 117 2 -0.35 7.82287 23.728192 13.60148 0 0 0
352 118 1 0.7 8.171474 28.560016 11.998334 0 0 0
353 118 2 -0.35 7.676498 27.67743 11.4312 0 0 0
354 118 2 -0.35 8.666449 29.442603 12.565467 0 0 0
355 119 1 0.7 9.94817 20.155298 29.137385 0 0 0
356 119 2 -0.35 10.836414 19.867655 28.448991 0 0 0
357 119 2 -0.35 9.059927 20.442941 29.825778 0 0 0
358 120 1 0.7 19.920219 19.05134 14.484897 0 0 0
359 120 2 -0.35 20.771993 18.265017 14.442736 0 0 0
360 120 2 -0.35 19.068445 19.837662 14.527058 0 0 0
361 121 1 0.7 3.83837 16.094547 11.04092 0 0 0
362 121 2 -0.35 3.220993 16.56369 11.903677 0 0 0
363 121 2 -0.35 4.455747 15.625403 10.178162 0 0 0
364 122 1 0.7 14.63127 9.89728 21.872975 0 0 0
365 122 2 -0.35 14.072622 10.883136 22.121171 0 0 0
366 122 2 -0.35 15.189918 8.911425 21.624778 0 0 0
367 123 1 0.7 19.405821 8.22661 26.750007 0 0 0
368 123 2 -0.35 18.659667 7.831392 25.95461 0 0 0
369 123 2 -0.35 20.151976 8.621828 27.545403 0 0 0
370 124 1 0.7 23.005793 18.527847 11.840794 0 0 0
371 124 2 -0.35 22.096619 18.203559 12.484098 0 0 0
372 124 2 -0.35 23.914967 18.852135 11.19749 0 0 0
373 125 1 0.7 11.871454 13.202999 18.401574 0 0 0
374 125 2 -0.35 11.817795 14.108732 17.678824 0 0 0
375 125 2 -0.35 11.925113 12.297265 19.124324 0 0 0
376 126 1 0.7 5.267355 11.192561 23.272786 0 0 0
377 126 2 -0.35 6.317311 11.485117 23.669778 0 0 0
378 126 2 -0.35 4.217399 10.900005 22.875795 0 0 0
379 127 1 0.7 18.712606 22.363913 28.211435 0 0 0
380 127 2 -0.35 18.785817 22.031112 27.102614 0 0 0
381 127 2 -0.35 18.639396 22.696715 29.320256 0 0 0
382 128 1 0.7 26.804979 28.739599 8.092578 0 0 0
383 128 2 -0.35 26.49173 29.855644 8.136393 0 0 0
384 128 2 -0.35 27.118228 27.623555 8.048763 0 0 0
385 129 1 0.7 20.81923 6.50514 3.825067 0 0 0
386 129 2 -0.35 20.08469 7.109534 3.161171 0 0 0
387 129 2 -0.35 21.553771 5.900745 4.488963 0 0 0
388 130 1 0.7 21.998007 2.525505 6.519523 0 0 0
389 130 2 -0.35 22.428848 2.758782 5.468068 0 0 0
390 130 2 -0.35 21.567166 2.292228 7.570978 0 0 0
391 131 1 0.7 12.958072 14.378906 13.034495 0 0 0
392 131 2 -0.35 11.86772 14.621892 12.721942 0 0 0
393 131 2 -0.35 14.048425 14.13592 13.347047 0 0 0
394 132 1 0.7 14.352391 3.657265 23.290183 0 0 0
395 132 2 -0.35 14.714483 4.473265 22.549485 0 0 0
396 132 2 -0.35 13.990299 2.841264 24.03088 0 0 0
397 133 1 0.7 23.493167 13.292395 27.355453 0 0 0
398 133 2 -0.35 22.823569 12.469402 27.824409 0 0 0
399 133 2 -0.35 24.162765 14.115389 26.886497 0 0 0
400 134 1 0.7 19.989209 7.945305 10.340846 0 0 0
401 134 2 -0.35 19.340098 7.340318 11.088005 0 0 0
402 134 2 -0.35 20.638321 8.550291 9.593688 0 0 0
403 135 1 0.7 12.553192 26.863265 13.562778 0 0 0
404 135 2 -0.35 11.434499 26.897531 13.867658 0 0 0
405 135 2 -0.35 13.671885 26.828999 13.257899 0 0 0
406 136 1 0.7 18.83696 3.43804 4.820805 0 0 0
407 136 2 -0.35 18.67441 4.455233 4.287423 0 0 0
408 136 2 -0.35 18.999509 2.420847 5.354187 0 0 0
409 137 1 0.7 12.243225 12.247657 14.613568 0 0 0
410 137 2 -0.35 12.952213 11.397113 14.267865 0 0 0
411 137 2 -0.35 11.534237 13.098201 14.95927 0 0 0
412 138 1 0.7 3.675716 29.836144 14.744467 0 0 0
413 138 2 -0.35 2.844903 30.559246 14.3805 0 0 0
414 138 2 -0.35 4.50653 29.113042 15.108435 0 0 0
415 139 1 0.7 22.284401 24.692472 29.005583 0 0 0
416 139 2 -0.35 21.588416 23.764666 28.986094 0 0 0
417 139 2 -0.35 22.980387 25.620279 29.025072 0 0 0
418 140 1 0.7 28.44921 19.215246 17.491128 0 0 0
419 140 2 -0.35 27.665175 19.019603 18.323361 0 0 0
420 140 2 -0.35 29.233246 19.410889 16.658895 0 0 0
421 141 1 0.7 14.191839 12.215842 17.283445 0 0 0
422 141 2 -0.35 15.135537 12.616064 17.826451 0 0 0
423 141 2 -0.35 13.24814 11.815619 16.74044 0 0 0
424 142 1 0.7 27.405399 6.789522 20.066875 0 0 0
425 142 2 -0.35 28.43772 6.266295 20.145271 0 0 0
426 142 2 -0.35 26.373077 7.312749 19.988479 0 0 0
427 143 1 0.7 15.033649 14.212854 24.407416 0 0 0
428 143 2 -0.35 13.917693 14.52944 24.411362 0 0 0
429 143 2 -0.35 16.149605 13.896268 24.40347 0 0 0
430 144 1 0.7 31.379827 5.112303 12.556365 0 0 0
431 144 2 -0.35 31.582989 6.237947 12.749371 0 0 0
432 144 2 -0.35 31.176665 3.98666 12.363359 0 0 0
433 145 1 0.7 10.866091 9.150731 17.327971 0 0 0
434 145 2 -0.35 9.999268 8.660529 16.733059 0 0 0
435 145 2 -0.35 11.732915 9.640934 17.922882 0 0 0
436 146 1 0.7 16.941827 11.866257 23.884113 0 0 0
437 146 2 -0.35 17.993223 11.952308 24.366568 0 0 0
438 146 2 -0.35 15.890431 11.780206 23.401658 0 0 0
439 147 1 0.7 25.331431 26.858283 22.608066 0 0 0
440 147 2 -0.35 24.173032 26.893798 22.558561 0 0 0
441 147 2 -0.35 26.48983 26.822767 22.657571 0 0 0
442 148 1 0.7 20.969722 20.456256 29.630767 0 0 0
443 148 2 -0.35 21.068025 21.154792 30.551628 0 0 0
444 148 2 -0.35 20.87142 19.757721 28.709906 0 0 0
445 149 1 0.7 11.211355 27.91132 10.737499 0 0 0
446 149 2 -0.35 10.195711 28.42199 10.968332 0 0 0
447 149 2 -0.35 12.226999 27.400651 10.506666 0 0 0
448 150 1 0.7 14.796026 16.385327 11.253971 0 0 0
449 150 2 -0.35 15.67582 16.239358 11.995762 0 0 0
450 150 2 -0.35 13.916231 16.531296 10.512179 0 0 0
451 151 1 0.7 18.334088 19.931322 2.928788 0 0 0
452 151 2 -0.35 18.223962 20.644979 2.020952 0 0 0
453 151 2 -0.35 18.444215 19.217665 3.836624 0 0 0
454 152 1 0.7 21.04729 22.147399 17.972198 0 0 0
455 152 2 -0.35 21.458795 21.919917 16.911766 0 0 0
456 152 2 -0.35 20.635784 22.374881 19.032629 0 0 0
457 153 1 0.7 7.678722 14.673253 7.78105 0 0 0
458 153 2 -0.35 6.709064 14.35441 8.332143 0 0 0
459 153 2 -0.35 8.64838 14.992095 7.229958 0 0 0
460 154 1 0.7 11.56053 17.682862 19.369313 0 0 0
461 154 2 -0.35 11.361761 17.714774 18.226915 0 0 0
462 154 2 -0.35 11.759299 17.650951 20.51171 0 0 0
463 155 1 0.7 21.157182 5.31668 10.217413 0 0 0
464 155 2 -0.35 21.679298 6.280359 9.83752 0 0 0
465 155 2 -0.35 20.635066 4.353001 10.597305 0 0 0
466 156 1 0.7 15.71602 31.210018 4.947015 0 0 0
467 156 2 -0.35 14.582966 30.981917 5.045809 0 0 0
468 156 2 -0.35 16.849073 31.438118 4.848222 0 0 0
469 157 1 0.7 7.070008 24.20422 18.806998 0 0 0
470 157 2 -0.35 7.929072 24.957895 18.608045 0 0 0
471 157 2 -0.35 6.210944 23.450544 19.005951 0 0 0
472 158 1 0.7 6.291011 31.191744 12.230184 0 0 0
473 158 2 -0.35 7.438614 31.270373 12.080438 0 0 0
474 158 2 -0.35 5.143407 31.113114 12.37993 0 0 0
475 159 1 0.7 10.149123 12.462354 30.63062 0 0 0
476 159 2 -0.35 10.08587 11.407473 30.152262 0 0 0
477 159 2 -0.35 10.212375 13.517234 31.108979 0 0 0
478 160 1 0.7 21.266863 17.804344 10.001416 0 0 0
479 160 2 -0.35 20.548896 17.543257 10.874317 0 0 0
480 160 2 -0.35 21.984831 18.065431 9.128515 0 0 0
481 161 1 0.7 23.810326 29.598585 11.821105 0 0 0
482 161 2 -0.35 24.618743 30.062475 12.511661 0 0 0
483 161 2 -0.35 23.001908 29.134696 11.130549 0 0 0
484 162 1 0.7 16.352729 14.063971 10.10241 0 0 0
485 162 2 -0.35 15.841916 14.884301 9.460749 0 0 0
486 162 2 -0.35 16.863542 13.243641 10.744071 0 0 0
487 163 1 0.7 4.784608 18.058058 21.870761 0 0 0
488 163 2 -0.35 4.508138 17.143171 22.52814 0 0 0
489 163 2 -0.35 5.061079 18.972944 21.213382 0 0 0
490 164 1 0.7 10.267893 10.296301 15.176348 0 0 0
491 164 2 -0.35 9.669386 11.047073 15.827295 0 0 0
492 164 2 -0.35 10.8664 9.54553 14.525401 0 0 0
493 165 1 0.7 26.545581 17.460013 9.2454 0 0 0
494 165 2 -0.35 26.073683 16.803648 8.413476 0 0 0
495 165 2 -0.35 27.017479 18.116378 10.077324 0 0 0
496 166 1 0.7 17.780228 5.766149 6.335608 0 0 0
497 166 2 -0.35 18.721806 6.040704 6.955002 0 0 0
498 166 2 -0.35 16.838649 5.491594 5.716213 0 0 0
499 167 1 0.7 25.622232 25.262996 26.853708 0 0 0
500 167 2 -0.35 26.660933 25.473982 26.382341 0 0 0
501 167 2 -0.35 24.583532 25.05201 27.325074 0 0 0
502 168 1 0.7 28.628581 8.364551 25.123679 0 0 0
503 168 2 -0.35 28.192463 9.342739 24.67809 0 0 0
504 168 2 -0.35 29.064699 7.386362 25.569267 0 0 0
505 169 1 0.7 19.765537 20.036537 19.22893 0 0 0
506 169 2 -0.35 19.206326 20.143017 20.239645 0 0 0
507 169 2 -0.35 20.324748 19.930058 18.218215 0 0 0
508 170 1 0.7 4.771734 8.005165 14.873374 0 0 0
509 170 2 -0.35 3.87485 8.690698 15.140287 0 0 0
510 170 2 -0.35 5.668619 7.319633 14.606461 0 0 0
511 171 1 0.7 7.140062 7.918158 9.2103 0 0 0
512 171 2 -0.35 6.466967 8.825364 9.473968 0 0 0
513 171 2 -0.35 7.813157 7.010952 8.946633 0 0 0
514 172 1 0.7 22.954805 23.374912 10.051666 0 0 0
515 172 2 -0.35 23.367822 22.714504 10.911247 0 0 0
516 172 2 -0.35 22.541787 24.035319 9.192086 0 0 0
517 173 1 0.7 5.656652 21.849887 26.850566 0 0 0
518 173 2 -0.35 4.776103 21.110583 26.696742 0 0 0
519 173 2 -0.35 6.537201 22.589192 27.004391 0 0 0
520 174 1 0.7 30.284827 16.307502 12.835746 0 0 0
521 174 2 -0.35 31.35715 15.87593 12.738442 0 0 0
522 174 2 -0.35 29.212503 16.739074 12.93305 0 0 0
523 175 1 0.7 14.727927 5.024178 30.703826 0 0 0
524 175 2 -0.35 14.794154 5.81462 31.55024 0 0 0
525 175 2 -0.35 14.6617 4.233737 29.857412 0 0 0
526 176 1 0.7 14.158057 19.382205 26.650168 0 0 0
527 176 2 -0.35 13.103511 19.854918 26.549798 0 0 0
528 176 2 -0.35 15.212604 18.909492 26.750538 0 0 0
529 177 1 0.7 3.119434 16.369832 19.856639 0 0 0
530 177 2 -0.35 2.120884 16.767009 19.419891 0 0 0
531 177 2 -0.35 4.117984 15.972655 20.293386 0 0 0
532 178 1 0.7 29.717698 28.687568 8.690991 0 0 0
533 178 2 -0.35 29.673593 27.530636 8.619138 0 0 0
534 178 2 -0.35 29.761803 29.8445 8.762844 0 0 0
535 179 1 0.7 19.145473 11.673713 26.556013 0 0 0
536 179 2 -0.35 19.699904 12.651636 26.842149 0 0 0
537 179 2 -0.35 18.591042 10.695791 26.269877 0 0 0
538 180 1 0.7 26.383798 4.211678 18.732716 0 0 0
539 180 2 -0.35 27.204937 3.415588 18.538883 0 0 0
540 180 2 -0.35 25.562659 5.007768 18.926549 0 0 0
541 181 1 0.7 30.14967 20.358183 25.737714 0 0 0
542 181 2 -0.35 30.776828 19.383519 25.785713 0 0 0
543 181 2 -0.35 29.522513 21.332847 25.689715 0 0 0
544 182 1 0.7 14.965557 30.306349 29.757697 0 0 0
545 182 2 -0.35 14.531607 31.37787 29.853248 0 0 0
546 182 2 -0.35 15.399507 29.234828 29.662145 0 0 0
547 183 1 0.7 5.97399 19.150082 29.50786 0 0 0
548 183 2 -0.35 5.972825 20.016246 30.279454 0 0 0
549 183 2 -0.35 5.975155 18.283918 28.736265 0 0 0
550 184 1 0.7 15.456074 3.157285 19.775425 0 0 0
551 184 2 -0.35 16.543276 2.772149 19.651879 0 0 0
552 184 2 -0.35 14.368872 3.54242 19.898971 0 0 0
553 185 1 0.7 8.546945 14.765983 26.549093 0 0 0
554 185 2 -0.35 7.54437 15.329559 26.700173 0 0 0
555 185 2 -0.35 9.54952 14.202407 26.398014 0 0 0
556 186 1 0.7 3.505003 16.956193 30.895717 0 0 0
557 186 2 -0.35 3.186629 17.16331 29.79966 0 0 0
558 186 2 -0.35 3.823378 16.749077 31.991774 0 0 0
559 187 1 0.7 12.52044 21.101102 22.286575 0 0 0
560 187 2 -0.35 11.630069 20.36721 22.405913 0 0 0
561 187 2 -0.35 13.410811 21.834995 22.167237 0 0 0
562 188 1 0.7 15.060006 24.501155 13.957577 0 0 0
563 188 2 -0.35 14.722007 24.75709 12.87783 0 0 0
564 188 2 -0.35 15.398006 24.24522 15.037324 0 0 0
565 189 1 0.7 25.891739 8.082548 10.638811 0 0 0
566 189 2 -0.35 26.136143 6.948707 10.655317 0 0 0
567 189 2 -0.35 25.647336 9.216389 10.622305 0 0 0
568 190 1 0.7 12.908015 6.770837 28.778816 0 0 0
569 190 2 -0.35 12.775074 5.690265 28.378451 0 0 0
570 190 2 -0.35 13.040956 7.851409 29.17918 0 0 0
571 191 1 0.7 6.202413 14.354915 20.347728 0 0 0
572 191 2 -0.35 6.329987 14.597245 21.474937 0 0 0
573 191 2 -0.35 6.07484 14.112584 19.220518 0 0 0
574 192 1 0.7 13.783753 3.213927 3.363287 0 0 0
575 192 2 -0.35 14.171853 2.125828 3.46826 0 0 0
576 192 2 -0.35 13.395652 4.302025 3.258314 0 0 0
577 193 1 0.7 7.035221 21.278472 7.054104 0 0 0
578 193 2 -0.35 7.488377 22.122774 7.707866 0 0 0
579 193 2 -0.35 6.582065 20.434171 6.400342 0 0 0
580 194 1 0.7 28.109008 9.972246 12.164289 0 0 0
581 194 2 -0.35 27.062349 9.499386 12.327104 0 0 0
582 194 2 -0.35 29.155666 10.445106 12.001474 0 0 0
583 195 1 0.7 20.009428 13.364183 31.731671 0 0 0
584 195 2 -0.35 20.794471 14.211287 31.839942 0 0 0
585 195 2 -0.35 19.224385 12.51708 31.6234 0 0 0
586 196 1 0.7 2.995398 14.653091 3.137854 0 0 0
587 196 2 -0.35 2.304242 15.217618 3.878942 0 0 0
588 196 2 -0.35 3.686555 14.088563 2.396767 0 0 0
589 197 1 0.7 15.593996 9.273208 25.134056 0 0 0
590 197 2 -0.35 14.679437 8.560554 25.170172 0 0 0
591 197 2 -0.35 16.508556 9.985862 25.09794 0 0 0
592 198 1 0.7 12.509491 30.802465 3.418374 0 0 0
593 198 2 -0.35 12.402328 31.925262 3.689375 0 0 0
594 198 2 -0.35 12.616653 29.679667 3.147374 0 0 0
595 199 1 0.7 25.151476 19.245032 23.845226 0 0 0
596 199 2 -0.35 25.995747 18.469801 24.023616 0 0 0
597 199 2 -0.35 24.307205 20.020264 23.666836 0 0 0
598 200 1 0.7 25.812705 21.562304 22.225359 0 0 0
599 200 2 -0.35 25.942436 22.471965 22.933375 0 0 0