ITEM: TIMESTEP
0
ITEM: NUMBER OF ATOMS
300
ITEM: BOX BOUNDS pp pp pp
0.0000000000000000e+00 3.6000000000000000e+01
0.0000000000000000e+00 3.6000000000000000e+01
0.0000000000000000e+00 3.6000000000000000e+01
ITEM: ATOMS id type xu yu zu
249 2 3.72199 6.49811 5.95185
247 1 4.61307 6.12804 5.30793
248 2 5.50415 5.75798 4.66401
38 2 36.0592 0.0732616 -32.631
57 2 83.6922 6.57118 -32.1354
21 2 16.4874 77.8956 5.22588
28 1 46.9986 111.818 38.1926
29 2 47.1089 112.786 37.5633
30 2 46.8883 110.849 38.822
20 2 14.5912 79.1772 5.60588
19 1 15.5393 78.5364 5.41588
55 1 82.6069 6.67805 -32.5308
140 2 122.32 -29.6087 2.2807
56 2 81.5216 6.78491 -32.9261
139 1 122.221 -29.3127 1.1635
141 2 122.121 -29.0168 0.0463014
12 2 -32.5957 15.4746 37.8908
10 1 -32.4245 15.0874 36.8108
103 1 85.5943 16.5904 0.421043
94 1 -25.3414 47.9396 39.9139
96 2 -26.0953 48.5464 40.5534
95 2 -24.5874 47.3329 39.2743
105 2 84.9613 17.5467 0.59577
104 2 86.2273 15.6342 0.246315
231 2 77.9036 1.03913 47.8126
203 2 16.9393 0.0606405 53.0882
46 1 0.673269 -57.9527 52.8155
48 2 1.08839 -58.6024 53.6822
193 1 -30.5944 50.7479 -18.2873
195 2 -31.5317 51.054 -18.8984
222 2 36.4672 10.5814 -18.9993
47 2 0.25815 -57.3031 51.9488
71 2 9.52309 -24.6632 53.6607
43 1 16.1562 51.0861 51.5031
44 2 16.4152 50.344 52.3562
45 2 15.8972 51.8281 50.6499
24 2 40.9951 3.03521 24.9616
22 1 40.3505 3.70731 24.27
23 2 39.7059 4.37941 23.5783
170 2 48.3967 43.3653 24.7856
171 2 46.6476 42.9029 23.3333
169 1 47.5221 43.1341 24.0595
217 1 53.7073 1.65649 61.986
219 2 52.6593 2.09196 62.226
194 2 -29.6571 50.4418 -17.6762
261 2 39.2427 11.8781 59.0862
259 1 39.8804 12.7454 58.6539
260 2 40.5181 13.6126 58.2216
72 2 7.64677 -24.4821 55.0131
70 1 8.58493 -24.5726 54.3369
137 2 84.2842 -19.9982 24.2602
136 1 83.682 -19.2415 23.6196
87 2 16.5298 17.5421 57.1978
85 1 17.6107 17.1333 57.0968
138 2 83.0798 -18.4849 22.9789
183 2 2.43159 36.2529 64.1505
182 2 3.35921 38.2912 63.5446
181 1 2.8954 37.272 63.8476
3 2 0.0839242 40.0024 35.3102
1 1 0.571641 40.265 34.291
2 2 1.05936 40.5276 33.2718
16 1 81.0666 -35.2251 28.0982
144 2 85.974 -28.643 -6.6623
142 1 85.838 -27.4926 -6.72362
17 2 81.5446 -34.2234 27.761
11 2 -32.2534 14.7003 35.7308
147 2 11.3222 52.6018 34.296
246 2 -60.7792 10.2273 142.069
244 1 -61.5156 11.1235 142.077
245 2 -62.2519 12.0198 142.086
146 2 10.535 52.9537 32.1422
145 1 10.9286 52.7778 33.2191
143 2 85.7021 -26.3423 -6.78494
228 2 53.4084 55.3468 80.0591
226 1 52.3839 54.906 79.7403
227 2 51.3594 54.4653 79.4214
131 2 -31.2045 -42.7648 0.119757
52 1 6.29442 -1.98887 5.29069
54 2 5.32797 -2.56366 5.57563
53 2 7.26088 -1.41409 5.00575
263 2 -25.6494 32.8031 8.30314
264 2 -23.8817 34.2014 8.85274
262 1 -24.7655 33.5023 8.57794
111 2 50.1027 62.5363 52.0165
109 1 50.728 61.6644 51.5757
110 2 51.3534 60.7925 51.1348
185 2 38.9974 -6.72286 -59.4404
186 2 41.0937 -7.44636 -60.1219
184 1 40.0455 -7.08461 -59.7812
230 2 78.1005 -1.20007 48.3867
229 1 78.002 -0.0804704 48.0997
177 2 16.8189 33.1853 51.7471
175 1 17.8611 33.0781 51.2492
204 2 15.2368 -0.36403 51.5705
202 1 16.088 -0.151695 52.3293
235 1 -35.5779 -9.23504 -48.735
298 1 6.36436 -15.0549 20.4995
8 2 -66.7298 -16.6741 -49.3133
160 1 8.88876 19.4442 25.5331
7 1 -65.7682 -17.2504 -49.0153
236 2 -34.7553 -9.75332 -49.3678
9 2 -64.8066 -17.8267 -48.7173
300 2 7.41969 -14.8623 20.9408
299 2 5.30903 -15.2476 20.0581
162 2 8.3157 20.4337 25.3378
99 2 51.0625 57.1166 -10.8369
97 1 51.0501 57.8168 -11.7617
98 2 51.0377 58.5169 -12.6865
200 2 -18.3221 20.637 -49.8853
161 2 9.46181 18.4547 25.7284
60 2 110.345 -80.5433 -9.83379
58 1 110.222 -79.5796 -9.20015
125 2 14.4362 -38.2615 93.5654
67 1 53.5514 -38.6068 18.9074
68 2 52.4222 -38.6791 19.1628
126 2 15.2539 -37.0244 95.3497
124 1 14.845 -37.6429 94.4576
233 2 53.8854 34.2411 -13.7247
117 2 0.287099 -17.829 -6.26455
115 1 1.28839 -17.2865 -6.04402
51 2 1.2121 -11.1368 -6.78144
127 1 41.1303 20.2663 28.7279
241 1 7.41913 21.0901 -1.14247
116 2 2.28968 -16.7439 -5.82349
101 2 -31.4008 24.9379 -2.97635
49 1 1.59324 -10.0685 -6.53874
50 2 1.97439 -9.00008 -6.29605
243 2 7.29109 20.4556 -2.10511
100 1 -31.3471 24.304 -2.00642
128 2 40.9023 21.2905 28.2332
102 2 -31.2933 23.67 -1.03648
242 2 7.54717 21.7245 -0.179827
129 2 41.3584 19.2422 29.2225
206 2 7.36778 -14.2056 -42.1169
205 1 8.24974 -14.8181 -42.5559
121 1 10.5419 26.2918 -1.15932
207 2 9.13169 -15.4305 -42.9948
122 2 9.53942 26.688 -1.58791
291 2 -91.6774 62.4152 32.1061
290 2 -92.0095 60.2917 31.2327
289 1 -91.8435 61.3534 31.6694
209 2 -18.4178 91.125 33.2484
213 2 -18.2429 24.2322 -7.49982
123 2 11.5443 25.8956 -0.73073
18 2 80.5886 -36.2268 28.4354
59 2 110.098 -78.6158 -8.5665
132 2 -31.3812 -44.7846 -1.00784
130 1 -31.2929 -43.7747 -0.444043
151 1 48.7505 35.5495 -1.59761
152 2 48.8628 35.4744 -0.445509
174 2 89.1941 -3.68184 34.9634
153 2 48.6381 35.6246 -2.74971
256 1 24.6495 7.03764 3.38849
258 2 25.0066 5.93476 3.34623
257 2 24.2925 8.14053 3.43074
192 2 -50.5507 0.160432 39.6587
190 1 -50.5762 0.284396 38.5056
191 2 -50.6017 0.408361 37.3525
156 2 33.2617 44.673 -31.1425
154 1 32.2894 44.8997 -31.7331
197 2 -41.5041 108.591 -102.729
42 2 -7.14751 0.252187 8.29168
15 2 29.8517 72.555 36.0475
134 2 20.1689 16.677 37.109
74 2 92.5723 -24.7893 3.57938
73 1 92.7075 -25.8575 4.01101
75 2 92.8426 -26.9257 4.44265
272 2 24.0217 14.5246 40.7669
271 1 24.6521 15.1874 40.0535
273 2 25.2825 15.8502 39.3401
288 2 59.3313 -23.4415 0.0424543
287 2 59.6198 -24.3946 2.13786
286 1 59.4756 -23.918 1.09016
133 1 19.2321 16.1897 37.5891
135 2 18.2953 15.7024 38.0693
155 2 31.3171 45.1263 -32.3237
269 2 -3.79086 17.4046 5.72065
81 2 -10.2981 0.654877 14.4594
79 1 -9.29124 0.908036 14.9768
215 2 -9.16195 -28.1064 16.8945
281 2 -4.92687 74.5609 48.5828
282 2 -6.03319 76.5685 48.2246
280 1 -5.48003 75.5647 48.4037
216 2 -7.08349 -28.0654 17.9245
80 2 -8.28435 1.1612 15.4942
214 1 -8.12272 -28.0859 17.4095
178 1 -15.1139 10.5187 46.3714
179 2 -15.2734 9.51699 46.9342
180 2 -14.9543 11.5203 45.8085
221 2 34.309 11.2933 -19.4662
220 1 35.3881 10.9374 -19.2327
163 1 -16.6287 112.598 54.8166
165 2 -17.4127 113.237 54.2481
218 2 54.7553 1.22101 61.7459
107 2 -9.3975 78.9569 -9.48096
164 2 -15.8447 111.96 55.3851
106 1 -10.4266 78.6743 -9.02629
267 2 32.8302 8.18299 19.701
92 2 -3.85188 -34.2664 -14.356
91 1 -4.49745 -33.6414 -13.6224
93 2 -5.14303 -33.0163 -12.8888
266 2 31.0243 8.45392 21.132
265 1 31.9273 8.31845 20.4165
255 2 -14.3111 14.8624 -11.1321
118 1 54.75 17.6747 96.6897
119 2 55.0653 16.6744 96.194
86 2 18.6916 16.7245 56.9958
254 2 -14.0823 17.0446 -11.8858
253 1 -14.1967 15.9535 -11.5089
114 2 34.1333 13.2809 -46.4831
112 1 34.5651 12.5253 -45.7162
108 2 -11.4557 78.3917 -8.57162
13 1 30.6035 72.4726 35.1679
14 2 31.3552 72.3903 34.2883
252 2 -3.44393 36.4558 -8.53634
158 2 -5.5614 14.7662 63.2049
157 1 -6.57911 15.138 63.6192
159 2 -7.59682 15.5098 64.0335
113 2 34.997 11.7697 -44.9493
63 2 57.24 20.7431 36.9224
62 2 55.6007 20.1732 38.462
61 1 56.4204 20.4582 37.6922
167 2 66.8276 23.9605 4.97917
270 2 -2.36476 19.1695 5.23729
168 2 66.4189 21.6892 5.217
166 1 66.6232 22.8248 5.09809
268 1 -3.07781 18.287 5.47897
37 1 35.5399 -0.959551 -32.7267
39 2 35.0205 -1.99236 -32.8224
40 1 -7.05571 -0.883705 8.5083
196 1 -41.1407 107.621 -103.25
198 2 -40.7774 106.65 -103.77
41 2 -6.96391 -2.0196 8.72491
84 2 -46.4181 -9.53608 53.6834
149 2 -78.8687 21.6139 47.9555
148 1 -79.5548 22.069 48.7727
150 2 -80.2409 22.5241 49.5898
32 2 -0.0852613 25.9854 12.0735
36 2 26.9464 -36.5044 17.5091
189 2 25.7117 105.859 15.217
188 2 25.3967 105.053 13.0646
187 1 25.5542 105.456 14.1408
176 2 18.9033 32.9709 50.7513
297 2 -7.6468 -8.44347 16.5304
31 1 -0.425718 27.0847 11.9281
295 1 -7.86649 -7.87622 15.5427
296 2 -8.08617 -7.30897 14.555
64 1 33.7521 -36.8348 82.9652
33 2 -0.766174 28.1841 11.7828
66 2 34.2584 -37.6538 83.6122
65 2 33.2459 -36.0159 82.3181
199 1 -17.7856 20.4642 -50.8992
201 2 -17.2492 20.2914 -51.9131
83 2 -45.5858 -9.65426 55.8458
82 1 -46.0019 -9.59517 54.7646
120 2 54.4348 18.6749 97.1854
225 2 -42.1198 23.2445 60.346
224 2 -41.2358 25.3893 60.3142
223 1 -41.6778 24.3169 60.3301
69 2 54.6806 -38.5345 18.6521
293 2 19.6436 27.7389 97.0507
234 2 56.1877 34.468 -13.5508
294 2 19.1776 29.8 98.0083
89 2 -48.0802 30.2415 26.9791
292 1 19.4106 28.7695 97.5295
232 1 55.0366 34.3545 -13.6377
35 2 27.4243 -37.2013 19.6698
237 2 -36.4004 -8.71675 -48.1023
26 2 -3.64399 -8.62862 -50.6636
239 2 29.0661 -1.08782 -13.0591
25 1 -4.33367 -8.17398 -51.478
27 2 -5.02334 -7.71934 -52.2924
34 1 27.1853 -36.8528 18.5895
238 1 29.3615 -2.20821 -13.0038
240 2 29.6569 -3.32861 -12.9485
212 2 -17.6311 22.589 -5.98059
76 1 -50.1662 21.2805 -38.508
275 2 61.6543 54.5809 -8.31577
78 2 -49.6135 21.547 -37.5236
77 2 -50.7189 21.0139 -39.4924
274 1 62.5052 55.3453 -8.12297
210 2 -17.2154 90.6169 35.1663
208 1 -17.8166 90.8709 34.2074
211 1 -17.937 23.4106 -6.7402
276 2 63.356 56.1098 -7.93017
279 2 30.6687 94.5563 71.8666
277 1 29.7065 93.9097 71.8269
278 2 28.7442 93.2631 71.7871
88 1 -48.1309 29.4708 27.8445
173 2 91.4919 -3.45855 35.1932
172 1 90.343 -3.57019 35.0783
90 2 -48.1815 28.7 28.71
5 2 -4.30982 -4.6634 27.266
284 2 64.6969 101.734 -37.7404
285 2 66.8173 100.839 -38.0311
283 1 65.7571 101.287 -37.8858
4 1 -4.31495 -3.55278 27.6008
250 1 -2.45878 35.8472 -8.60552
6 2 -4.32008 -2.44215 27.9356
251 2 -1.47363 35.2387 -8.6747
ITEM: TIMESTEP
10000
ITEM: NUMBER OF ATOMS
300
ITEM: BOX BOUNDS pp pp pp
0.0000000000000000e+00 3.6000000000000000e+01
0.0000000000000000e+00 3.6000000000000000e+01
0.0000000000000000e+00 3.6000000000000000e+01
ITEM: ATOMS id type xu yu zu
267 2 44.5463 42.098 39.58
44 2 6.65493 48.1904 40.0989
47 2 5.07128 -68.0569 36.6511
180 2 -22.2486 8.03583 36.7465
266 2 45.1898 44.2031 40.3127
265 1 44.8681 43.1505 39.9464
10 1 -59.9225 1.04938 38.8681
178 1 -22.4977 9.10249 37.1283
27 2 9.30706 -22.8712 -32.9713
12 2 -59.8631 1.80784 37.9925
179 2 -22.7469 10.1691 37.5101
255 2 -31.0485 15.4433 -32.4282
46 1 4.1176 -68.525 36.1853
11 2 -59.982 0.290931 39.7438
25 1 9.14716 -24.0154 -32.8671
26 2 8.98726 -25.1596 -32.763
45 2 4.63723 47.2434 39.4551
43 1 5.64608 47.7169 39.777
254 2 -29.4419 15.4017 -30.7551
253 1 -30.2452 15.4225 -31.5917
164 2 -26.2089 108.092 72.5713
276 2 44.7978 36.738 8.78036
13 1 36.5775 50.4962 37.3448
15 2 37.6294 50.5147 36.8562
163 1 -27.1835 108.721 72.585
165 2 -28.1581 109.35 72.5988
154 1 40.5777 42.1979 -55.243
287 2 72.4545 1.72748 -24.0263
155 2 39.6662 42.4784 -55.9033
156 2 41.4893 41.9175 -54.5827
102 2 -21.4516 11.5262 -24.3889
281 2 37.816 51.6285 52.3181
232 1 50.821 39.822 -19.0641
120 2 49.0103 44.3972 87.1977
118 1 48.7855 43.5953 86.3902
119 2 48.5608 42.7934 85.5827
167 2 52.5127 13.5356 17.394
192 2 -56.1441 -28.2149 17.3564
280 1 36.7164 51.7575 52.6643
234 2 50.7466 39.6621 -20.2106
101 2 -21.9225 12.1424 -22.2024
75 2 87.5389 -19.4464 11.8631
100 1 -21.6871 11.8343 -23.2957
73 1 88.1526 -18.7073 11.2129
244 1 -54.2068 13.0503 118.469
246 2 -54.5732 14.1302 118.681
223 1 -33.8945 37.1439 62.753
233 2 50.8954 39.982 -17.9176
8 2 -65.4528 9.38571 -51.4251
4 1 -28.3104 3.67509 20.0566
6 2 -27.4641 2.95151 20.3817
9 2 -66.3102 7.30098 -50.8763
7 1 -65.8815 8.34335 -51.1507
224 2 -34.0767 38.277 62.5845
5 2 -29.1568 4.39868 19.7315
135 2 17.7726 17.4569 24.8191
158 2 -30.5917 3.7321 62.4249
166 1 52.7734 13.3556 18.51
200 2 -34.4548 39.7897 -51.7501
124 1 2.32508 -56.2326 97.183
126 2 3.36262 -56.5937 96.8105
125 2 1.28754 -55.8716 97.5555
191 2 -56.2858 -27.8157 19.6374
190 1 -56.215 -28.0153 18.4969
157 1 -30.2657 3.83179 61.3161
159 2 -29.9398 3.93148 60.2074
168 2 53.034 13.1756 19.6259
199 1 -33.9162 38.913 -51.2145
87 2 6.82585 49.5008 26.5028
201 2 -33.3777 38.0362 -50.6788
169 1 38.063 45.4773 34.3718
170 2 37.5072 45.5856 35.3841
171 2 38.6189 45.3691 33.3594
183 2 16.404 48.5953 67.8075
181 1 15.9038 48.0116 66.9388
222 2 12.3078 5.16086 -42.9794
48 2 3.16392 -68.9931 35.7196
107 2 -19.8117 82.4791 -38.2313
106 1 -19.2558 82.0877 -37.2914
298 1 0.250279 4.80135 32.3392
299 2 0.882506 4.55715 33.2806
108 2 -18.6998 81.6963 -36.3516
182 2 15.4035 47.4279 66.0701
86 2 5.22502 50.7815 27.5888
62 2 43.5332 17.4721 31.3083
221 2 11.5948 6.82738 -44.4274
17 2 77.5763 -23.1894 35.1138
18 2 75.407 -22.6508 34.4922
16 1 76.4917 -22.9201 34.803
220 1 11.9513 5.99412 -43.7034
85 1 6.02543 50.1411 27.0458
60 2 119.377 -75.8248 -35.0605
58 1 119.896 -74.8848 -34.6225
274 1 45.4434 35.8082 9.03356
263 2 0.161079 56.3113 42.689
59 2 120.416 -73.9448 -34.1844
194 2 -18.1298 70.1181 1.97012
177 2 3.00273 26.3154 47.5452
175 1 2.78241 25.3726 48.1841
110 2 37.4393 68.2997 16.4319
272 2 10.3248 -7.82585 46.1515
273 2 8.14645 -7.40425 45.4736
271 1 9.23562 -7.61505 45.8125
109 1 37.3163 69.4524 16.3925
111 2 37.1932 70.6052 16.3531
78 2 -34.4033 25.2938 -55.6605
176 2 2.56209 24.4298 48.823
76 1 -35.3985 25.4442 -55.0838
23 2 36.8486 -14.1758 14.3609
22 1 36.5159 -14.2022 13.2499
24 2 36.1831 -14.2287 12.139
74 2 88.7664 -17.9682 10.5628
275 2 46.0891 34.8783 9.28676
204 2 6.56967 -14.7303 21.3325
203 2 6.16734 -14.805 23.6161
202 1 6.36851 -14.7676 22.4743
242 2 6.99513 25.0237 -16.2518
148 1 -107.949 -17.7036 18.9997
150 2 -107.342 -16.7818 18.6419
225 2 -33.7122 36.0107 62.9216
140 2 160.814 -13.8361 24.7948
139 1 161.815 -13.8447 25.3796
241 1 6.20736 24.1725 -16.2724
243 2 5.4196 23.3213 -16.293
65 2 7.7713 -13.3182 99.3003
64 1 8.14825 -13.905 100.227
66 2 8.52521 -14.4918 101.154
63 2 43.3484 18.7823 33.214
131 2 -25.848 -45.5428 -1.10444
130 1 -25.6178 -45.9842 -2.15219
132 2 -25.3877 -46.4256 -3.19995
61 1 43.4408 18.1272 32.2612
296 2 23.0214 5.51745 6.59764
295 1 22.9216 5.58245 7.75151
297 2 22.8219 5.64745 8.90539
269 2 20.6178 9.60137 8.16373
260 2 63.3282 2.5298 77.1783
231 2 106.613 6.3296 39.4248
261 2 61.958 2.58355 75.307
259 1 62.6431 2.55668 76.2427
230 2 106.145 6.32893 41.6972
229 1 106.379 6.32926 40.561
14 2 35.5256 50.4777 37.8334
96 2 -38.5424 74.1972 40.7996
270 2 21.0624 7.91577 6.63288
268 1 20.8401 8.75857 7.3983
143 2 91.9241 -54.3138 36.8207
151 1 27.336 17.0816 5.53283
153 2 27.4722 15.9307 5.48108
138 2 105.012 -26.9702 44.3046
95 2 -37.4547 73.9281 42.8311
94 1 -37.9986 74.0626 41.8153
142 1 93.0679 -54.1982 36.9761
144 2 94.2116 -54.0826 37.1315
112 1 24.3828 1.96552 -17.9809
113 2 24.7131 3.00378 -18.3791
67 1 54.5524 -66.0625 14.4253
288 2 70.2546 1.90143 -24.7421
42 2 -14.2432 3.52204 11.0631
41 2 -16.2839 3.07174 12.0706
40 1 -15.2635 3.29689 11.5669
55 1 66.3102 10.5058 -22.3464
121 1 19.1365 48.4777 14.2994
282 2 35.6168 51.8865 53.0105
3 2 -1.04836 5.72065 14.1185
56 2 67.156 10.0014 -22.9593
136 1 105.407 -27.8019 45.0103
57 2 65.4643 11.0102 -21.7334
240 2 20.7045 -18.3717 13.7892
123 2 20.1299 48.9209 13.8964
286 1 71.3546 1.81445 -24.3842
2 2 -3.35783 5.94041 14.1403
137 2 105.802 -28.6336 45.7161
1 1 -2.20309 5.83053 14.1294
239 2 20.2786 -20.4763 14.6675
68 2 55.0471 -65.0178 14.5234
238 1 20.4916 -19.424 14.2283
245 2 -53.8403 11.9705 118.256
69 2 54.0577 -67.1071 14.3272
122 2 18.1432 48.0344 14.7023
38 2 23.1374 11.9002 -13.199
172 1 106.746 6.49238 61.4545
205 1 -4.10743 7.71141 -49.296
214 1 -5.87359 -34.3809 21.3778
216 2 -6.02821 -33.7309 22.3261
207 2 -4.43118 6.79616 -49.931
37 1 24.0369 11.3079 -13.6298
215 2 -5.71896 -35.0309 20.4295
39 2 24.9364 10.7156 -14.0605
290 2 -86.3112 45.3398 24.491
206 2 -3.78368 8.62665 -48.6611
134 2 19.5117 16.9022 23.3871
19 1 -0.484383 78.9032 -17.4937
289 1 -87.4198 45.4591 24.8112
72 2 -5.85022 -18.021 62.3996
173 2 105.683 6.02936 61.4702
291 2 -88.5283 45.5785 25.1313
133 1 18.6422 17.1796 24.1031
83 2 -44.8476 -24.0449 55.6689
82 1 -45.3028 -24.8485 54.967
35 2 65.2099 -30.3625 25.9198
21 2 -0.559655 80.0349 -17.2503
114 2 24.0526 0.927254 -17.5827
20 2 -0.40911 77.7715 -17.737
84 2 -45.7579 -25.6521 54.265
174 2 107.81 6.95539 61.4389
149 2 -108.556 -18.6253 19.3575
34 1 65.9333 -30.1211 26.7938
99 2 62.3325 78.3133 31.8003
80 2 -1.463 43.9372 35.7807
97 1 62.0659 78.083 30.6951
98 2 61.7992 77.8526 29.5899
236 2 -8.16358 -22.3932 -72.5878
36 2 66.6568 -29.8797 27.6679
235 1 -7.67667 -23.4264 -72.7906
237 2 -7.18976 -24.4595 -72.9935
227 2 63.4017 36.1659 101.782
300 2 -0.381948 5.04555 31.3978
160 1 27.307 37.053 -2.90846
32 2 19.6694 11.8307 -5.30268
31 1 20.1881 12.8384 -5.54944
33 2 20.7069 13.8462 -5.7962
210 2 -16.0651 78.8866 31.4849
162 2 27.09 38.1413 -3.24632
209 2 -17.4963 80.7125 31.4941
249 2 -3.30622 -25.367 30.1401
248 2 -4.80411 -26.1025 31.7519
247 1 -4.05517 -25.7347 30.946
208 1 -16.7807 79.7995 31.4895
79 1 -1.1174 43.6881 34.7018
81 2 -0.771799 43.4391 33.6228
264 2 -1.71867 54.9515 42.6827
90 2 -43.8013 24.4813 37.9359
257 2 18.0465 25.1489 0.806283
256 1 18.1228 24.7835 1.90459
195 2 -17.4787 70.6427 4.13421
93 2 -5.84212 -15.857 6.02501
92 2 -4.11168 -14.483 5.31783
91 1 -4.9769 -15.17 5.67142
89 2 -44.3678 26.1004 36.3738
187 1 55.7403 104.23 6.41591
188 2 55.1326 104.785 7.23319
193 1 -17.8043 70.3804 3.05217
88 1 -44.0845 25.2909 37.1549
262 1 -0.778797 55.6314 42.6859
189 2 56.348 103.675 5.59863
258 2 18.199 24.4181 3.00289
152 2 27.1999 18.2324 5.58457
252 2 -8.46676 32.3301 15.1205
217 1 57.5977 27.2072 87.4818
250 1 -8.21759 31.6162 14.2408
103 1 107.527 27.2428 11.4146
104 2 107.373 28.3027 10.9691
218 2 57.6774 26.8497 88.5825
105 2 107.681 26.1829 11.86
77 2 -36.3937 25.5946 -54.5071
219 2 57.518 27.5647 86.3812
251 2 -7.96841 30.9023 13.3611
285 2 63.6354 93.712 -45.9655
283 1 62.6309 94.2883 -46.0316
284 2 61.6264 94.8647 -46.0977
49 1 -14.2777 -10.6086 -11.458
128 2 31.6846 -0.698868 26.8078
294 2 63.373 30.3871 94.2124
213 2 -10.0229 18.899 -12.6839
211 1 -9.22347 18.6849 -13.4966
212 2 -8.424 18.4709 -14.3094
129 2 30.0462 -0.570612 25.1703
53 2 -3.0425 -3.56317 -14.0292
147 2 -14.3694 69.0203 60.2521
145 1 -14.9758 68.4158 59.4695
292 1 64.1411 30.1363 93.3802
50 2 -13.9378 -9.60373 -11.9274
146 2 -15.5821 67.8112 58.6868
293 2 64.9093 29.8856 92.5479
127 1 30.8654 -0.63474 25.989
141 2 162.817 -13.8534 25.9644
54 2 -4.53827 -2.7613 -12.4474
52 1 -3.79038 -3.16224 -13.2383
51 2 -14.6176 -11.6135 -10.9887
117 2 -42.9139 -7.01263 -9.12919
198 2 -9.35981 94.4678 -110.695
228 2 63.2774 33.8863 101.369
116 2 -42.3453 -7.8641 -7.04735
161 2 27.5239 35.9647 -2.5706
196 1 -8.79986 95.4573 -110.925
197 2 -8.23991 96.4467 -111.156
278 2 29.7794 105.176 63.9093
226 1 63.3396 35.0261 101.576
29 2 18.1646 104.007 33.8428
185 2 30.6626 -14.7065 -74.5621
115 1 -42.6296 -7.43836 -8.08827
186 2 31.3978 -16.4134 -73.1734
71 2 -6.22285 -16.3731 63.9895
30 2 20.0338 104.592 32.5997
184 1 31.0302 -15.56 -73.8677
28 1 19.0992 104.3 33.2213
277 1 28.7717 104.827 63.4527
70 1 -6.03654 -17.1971 63.1946
279 2 27.764 104.478 62.996
ITEM: TIMESTEP
20000
ITEM: NUMBER OF ATOMS
300
ITEM: BOX BOUNDS pp pp pp
0.0000000000000000e+00 3.6000000000000000e+01
0.0000000000000000e+00 3.6000000000000000e+01
0.0000000000000000e+00 3.6000000000000000e+01
ITEM: ATOMS id type xu yu zu
168 2 47.3583 12.2386 38.6112
167 2 48.4743 14.2443 38.2734
166 1 47.9163 13.2414 38.4423
189 2 84.0207 89.2299 36.7629
114 2 1.17273 1.63555 -24.4558
237 2 4.8852 -34.2384 -54.0625
112 1 0.724272 2.20128 -25.3638
235 1 4.76255 -34.9034 -55.0049
236 2 4.63989 -35.5685 -55.9474
59 2 111.065 -101.712 -56.3935
58 1 112.024 -101.114 -56.1332
56 2 49.6121 15.9141 -20.2754
55 1 48.6651 16.4265 -20.7069
185 2 40.7958 -22.7908 -58.9365
195 2 -18.3742 86.9596 10.3326
60 2 112.983 -100.515 -55.873
193 1 -18.2926 86.0768 11.0807
184 1 39.6997 -22.7969 -59.3163
57 2 47.718 16.9388 -21.1384
186 2 38.6037 -22.8029 -59.6962
194 2 -18.211 85.194 11.8288
113 2 0.275815 2.767 -26.2718
11 2 -92.4316 -18.0799 52.1623
259 1 46.5453 7.61387 62.6856
37 1 40.712 8.92242 -11.922
250 1 -26.5178 38.0355 19.914
252 2 -26.0923 37.7767 18.8664
251 2 -26.9433 38.2943 20.9617
181 1 15.6216 50.0888 54.7793
182 2 15.8955 49.868 53.674
39 2 41.1794 9.19638 -12.9478
80 2 12.8675 36.8454 20.328
258 2 14.5338 0.180463 -12.013
14 2 36.4219 52.154 56.4982
261 2 45.5445 8.05809 62.3027
289 1 -134.052 37.2652 24.3426
291 2 -133.704 36.2817 23.8359
290 2 -134.401 38.2487 24.8494
256 1 15.2945 -0.00573542 -11.1573
15 2 37.5951 53.4343 58.0366
282 2 40.9042 53.9139 21.3619
183 2 15.3477 50.3096 55.8847
13 1 37.0085 52.7941 57.2674
38 2 40.2447 8.64846 -10.8963
22 1 43.8449 1.64154 -3.65909
34 1 48.4344 -58.3396 27.6914
297 2 40.6603 6.03363 -4.14989
295 1 41.1219 7.09641 -4.20507
243 2 11.4976 38.7617 -42.4513
296 2 41.5835 8.15919 -4.26025
119 2 51.7511 83.6832 106.679
120 2 51.4227 82.5359 104.689
118 1 51.5869 83.1095 105.684
241 1 12.435 38.1736 -42.1033
242 2 13.3724 37.5856 -41.7553
188 2 83.2639 89.6416 34.6088
187 1 83.6423 89.4358 35.6858
24 2 43.4032 2.6806 -3.39276
23 2 44.2865 0.602483 -3.92542
36 2 48.5137 -57.2963 27.1905
197 2 6.70892 109.245 -109.129
260 2 47.5461 7.16965 63.0686
35 2 48.3552 -59.3829 28.1923
196 1 5.85285 108.789 -109.765
29 2 17.5476 99.0452 37.3288
164 2 0.167191 63.3804 73.2344
2 2 -21.8931 -1.1017 8.92964
136 1 125.336 -37.1591 36.2378
137 2 124.511 -36.3467 36.1659
254 2 -32.7792 26.2194 -22.3273
102 2 -22.7547 25.4704 -20.031
50 2 -29.7952 21.1889 -19.8372
215 2 -18.2362 -45.8335 50.0268
51 2 -28.7163 22.7918 -21.1214
268 1 13.351 25.7899 12.247
116 2 -25.4213 -15.6096 -26.4179
117 2 -24.0761 -17.4928 -26.2559
115 1 -24.7487 -16.5512 -26.3369
269 2 14.1497 26.6269 12.163
100 1 -23.7105 24.8176 -19.9538
270 2 12.5522 24.9529 12.3311
49 1 -29.2558 21.9903 -20.4793
47 2 -21.7091 -72.7571 12.943
253 1 -33.5729 25.4457 -21.9854
255 2 -34.3667 24.6719 -21.6435
1 1 -20.825 -1.17097 9.37664
46 1 -21.1586 -72.9282 13.9496
82 1 -58.9469 -9.34733 81.2656
3 2 -19.7568 -1.24025 9.82363
48 2 -20.6081 -73.0994 14.9562
101 2 -24.6662 24.1648 -19.8766
12 2 -92.1834 -17.8927 49.8632
10 1 -92.3075 -17.9863 51.0127
233 2 53.9222 29.3745 -20.3251
84 2 -58.6397 -10.4658 81.2482
83 2 -59.254 -8.22888 81.283
127 1 40.0863 -13.7462 22.0125
129 2 39.4958 -13.1791 22.8343
128 2 40.6768 -14.3134 21.1908
294 2 87.6977 29.8733 59.1362
148 1 -91.9231 -39.1381 -14.8528
150 2 -90.9218 -39.1236 -14.2673
73 1 86.0161 -17.2832 -9.97904
281 2 40.423 54.4053 23.5776
149 2 -92.9244 -39.1527 -15.4382
292 1 86.8172 29.165 59.3979
81 2 12.5115 34.6599 19.6357
226 1 48.2658 21.3414 97.2559
293 2 85.9367 28.4566 59.6597
75 2 85.4092 -17.4544 -9.00539
228 2 48.3385 21.9087 98.2651
74 2 86.623 -17.1121 -10.9527
63 2 0.242353 32.9369 60.8994
227 2 48.1931 20.7741 96.2467
93 2 -23.2739 -10.9647 22.8145
91 1 -24.2927 -11.4676 22.5809
92 2 -25.3116 -11.9706 22.3473
79 1 12.6895 35.7526 19.9819
280 1 40.6636 54.1596 22.4697
162 2 44.3028 34.5335 -9.66774
257 2 16.0553 -0.191933 -10.3016
72 2 1.4187 -8.71922 68.2644
70 1 1.80269 -9.00948 69.3198
71 2 2.18668 -9.29974 70.3752
231 2 108.342 30.9976 31.4715
198 2 4.99679 108.333 -110.401
160 1 43.8873 34.974 -8.67835
161 2 43.4718 35.4146 -7.68897
26 2 22.1808 -30.7501 -29.1964
25 1 21.8461 -31.1649 -30.2267
132 2 -16.3373 -70.5836 2.12526
27 2 21.5114 -31.5797 -31.257
130 1 -15.9557 -70.8178 1.05514
283 1 59.2218 89.3697 -32.0219
284 2 58.7834 89.4518 -30.9511
285 2 59.6602 89.2876 -33.0927
124 1 -17.5506 -25.6867 79.1137
125 2 -17.4534 -25.8906 80.2515
126 2 -17.6478 -25.4829 77.9758
151 1 -2.15095 1.37625 14.7981
90 2 -48.0724 13.895 13.9447
110 2 29.2036 40.3253 16.1545
300 2 -10.7995 8.60893 15.4218
298 1 -9.99742 8.04356 16.0403
299 2 -9.19534 7.47819 16.6589
267 2 64.4573 36.8932 15.1045
109 1 29.2435 40.8955 17.1638
245 2 -41.6482 8.92712 122.791
153 2 -2.10265 2.04174 15.747
244 1 -41.1131 9.90886 122.482
98 2 55.5586 88.4063 52.1448
99 2 57.7576 87.729 51.848
97 1 56.6581 88.0676 51.9964
89 2 -47.2886 11.8116 13.291
88 1 -47.6805 12.8533 13.6179
246 2 -40.578 10.8906 122.173
152 2 -2.19925 0.710754 13.8492
33 2 24.498 1.78404 -9.54212
31 1 24.7786 0.700057 -9.84512
21 2 -46.2337 84.153 -15.2936
43 1 -1.80773 75.136 18.6581
170 2 62.2867 76.5329 58.8835
171 2 63.4295 74.9428 60.1277
44 2 -2.80233 75.3938 18.1197
6 2 -36.927 15.8999 24.1204
78 2 -6.26236 5.93391 -44.9816
20 2 -46.0569 83.2061 -17.4041
4 1 -37.8509 15.657 24.7785
5 2 -38.7748 15.4141 25.4365
169 1 62.8581 75.7378 59.5056
19 1 -46.1453 83.6795 -16.3489
45 2 -0.813125 74.8782 19.1966
213 2 -2.45888 -18.2969 -9.26266
111 2 29.2833 41.4658 18.1732
122 2 25.2448 42.6621 -3.92608
121 1 24.8144 43.7001 -3.63827
123 2 24.384 44.7381 -3.35046
142 1 70.2538 -69.1256 34.1309
156 2 70.0184 52.5486 -41.9096
143 2 70.2317 -69.7314 33.1419
103 1 128.978 7.31502 -4.89956
140 2 167.338 -28.308 27.1416
104 2 129.543 7.52684 -5.89049
141 2 168.184 -29.1677 29.1234
139 1 167.761 -28.7378 28.1325
105 2 128.414 7.1032 -3.90862
190 1 -52.2109 -22.1961 30.4323
191 2 -52.5893 -21.4292 31.216
192 2 -51.8326 -22.963 29.6485
287 2 61.1539 -19.8042 -39.2189
286 1 61.7091 -19.9847 -40.2213
77 2 -5.21256 6.02563 -42.9148
288 2 62.2642 -20.1651 -41.2237
154 1 69.7365 51.436 -41.7417
155 2 69.4545 50.3233 -41.5739
144 2 70.2758 -68.5198 35.1199
76 1 -5.73746 5.97977 -43.9482
87 2 18.577 72.3027 27.7062
131 2 -15.5741 -71.052 -0.0149699
276 2 62.0436 28.2443 40.2105
159 2 -15.5229 23.9153 75.3824
157 1 -16.1291 22.9399 75.5459
158 2 -16.7353 21.9645 75.7094
199 1 -13.6258 70.1228 -71.2804
165 2 -1.26229 63.6257 75.0452
163 1 -0.547549 63.5031 74.1398
53 2 25.2871 21.0252 -28.6465
264 2 -7.62695 65.6031 75.9789
262 1 -6.5863 65.1549 75.7303
275 2 60.7701 27.2685 41.8863
274 1 61.4069 27.7564 41.0484
133 1 19.7884 29.8267 42.5571
263 2 -5.54564 64.7068 75.4817
135 2 20.163 30.8275 43.0083
201 2 -12.7156 70.7747 -70.9769
134 2 19.4137 28.8259 42.1058
28 1 18.4379 99.4747 36.7217
52 1 26.2893 21.0117 -28.0625
54 2 27.2914 20.9982 -27.4784
200 2 -14.536 69.4709 -71.5839
30 2 19.3282 99.9041 36.1147
138 2 126.161 -37.9715 36.3096
176 2 27.5914 26.1304 48.5468
175 1 27.2717 26.2497 47.4382
177 2 26.9519 26.369 46.3295
218 2 59.6656 58.2812 83.5417
217 1 60.6284 58.8961 83.3403
232 1 54.9393 29.4171 -19.7689
210 2 -42.2005 105.219 47.0542
219 2 61.5912 59.511 83.139
174 2 96.1857 -8.26631 84.2273
41 2 -10.4969 -5.00622 9.77027
68 2 62.3685 -72.6766 12.1168
208 1 -42.1306 104.716 48.097
216 2 -16.3697 -44.5076 49.6516
40 1 -10.0931 -5.05882 10.8564
234 2 55.9564 29.4597 -19.2127
42 2 -9.68919 -5.11143 11.9426
214 1 -17.3029 -45.1706 49.8392
266 2 66.0107 35.2403 15.5916
67 1 63.1808 -73.1409 12.8025
265 1 65.234 36.0667 15.3481
209 2 -42.0608 104.212 49.1397
172 1 95.3556 -7.8582 83.5274
173 2 94.5255 -7.45009 82.8274
69 2 63.9932 -73.6051 13.4882
278 2 24.1973 98.6664 60.2973
277 1 25.3157 98.4883 60.0459
248 2 21.0567 -49.8189 25.8335
279 2 26.434 98.3102 59.7946
238 1 30.703 -9.96752 19.3038
108 2 -14.6175 91.1856 -53.8416
9 2 -44.0497 25.5701 -51.9052
8 2 -45.4643 26.377 -53.5576
7 1 -44.757 25.9735 -52.7314
206 2 21.4681 -14.6244 -50.3147
205 1 22.1116 -13.9131 -49.6625
207 2 22.7551 -13.2017 -49.0102
107 2 -13.1698 92.9984 -53.8265
106 1 -13.8936 92.092 -53.8341
239 2 30.86 -11.0384 19.7212
202 1 19.2602 -2.81513 25.6306
204 2 18.528 -2.51494 26.4787
240 2 30.546 -8.89665 18.8865
222 2 -7.82055 30.062 -51.2012
203 2 19.9924 -3.11532 24.7825
272 2 28.5683 -3.43309 25.1524
271 1 29.0351 -3.9276 26.0921
273 2 29.5019 -4.42211 27.0319
220 1 -7.11813 30.7459 -50.5812
221 2 -6.4157 31.4299 -49.9612
247 1 20.4103 -49.5534 26.7593
62 2 -1.78473 32.2944 61.8271
61 1 -0.771189 32.6157 61.3632
32 2 25.0592 -0.383928 -10.1481
64 1 -16.713 -12.0751 70.1371
95 2 -39.602 69.2408 31.1668
147 2 -51.9827 66.4186 105.776
146 2 -50.7846 64.6599 104.852
66 2 -17.7349 -12.6147 70.0357
229 1 107.256 30.6093 31.5983
145 1 -51.3836 65.5392 105.314
65 2 -15.6911 -11.5356 70.2385
18 2 62.5954 -12.7147 34.5749
16 1 61.5498 -13.2042 34.6878
17 2 60.5042 -13.6936 34.8007
94 1 -39.8651 70.0667 30.3958
96 2 -40.1282 70.8925 29.6249
249 2 19.7638 -49.2879 27.6852
86 2 18.1988 71.8271 29.9452
179 2 -45.2283 -3.01099 64.6687
85 1 18.3879 72.0649 28.8257
230 2 106.171 30.221 31.7252
180 2 -47.2847 -1.94952 64.8324
178 1 -46.2565 -2.48026 64.7505
211 1 -1.71944 -17.5747 -8.73608
212 2 -0.979994 -16.8526 -8.20949
225 2 -43.7647 34.2811 71.4557
223 1 -43.8854 33.138 71.6117
224 2 -44.0061 31.9949 71.7677
ITEM: TIMESTEP
30000
ITEM: NUMBER OF ATOMS
300
ITEM: BOX BOUNDS pp pp pp
0.0000000000000000e+00 3.6000000000000000e+01
0.0000000000000000e+00 3.6000000000000000e+01
0.0000000000000000e+00 3.6000000000000000e+01
ITEM: ATOMS id type xu yu zu
278 2 13.6515 89.2138 76.4778
18 2 46.6738 -31.6229 73.7242
277 1 12.8681 88.835 77.2449
279 2 12.0847 88.4562 78.012
89 2 -60.2093 48.6916 8.77802
105 2 115.34 2.31722 0.960107
17 2 46.2922 -33.5443 72.4813
16 1 46.483 -32.5836 73.1027
103 1 115.876 1.31625 1.19706
104 2 116.413 0.315278 1.43401
166 1 47.5807 44.9708 47.3381
75 2 77.237 -34.0621 -23.2392
88 1 -59.4571 47.8838 9.13454
90 2 -58.7048 47.0759 9.49106
168 2 48.2548 44.3888 48.0813
167 2 46.9065 45.5527 46.5948
159 2 -61.6931 10.5787 88.4168
157 1 -60.6308 10.9596 88.1485
73 1 76.1361 -34.3215 -23.497
114 2 37.0512 -35.8408 -21.2303
74 2 75.0353 -34.5808 -23.7549
158 2 -59.5685 11.3405 87.8802
123 2 39.4032 41.4613 -14.0245
121 1 39.1564 42.1211 -13.1028
38 2 42.6206 0.473089 -49.8735
37 1 42.3101 0.999204 -50.8596
39 2 41.9996 1.52532 -51.8457
233 2 73.6351 17.5949 -12.1974
51 2 -56.097 49.0883 -49.3653
236 2 13.658 -29.2854 -9.46883
235 1 14.7849 -29.5405 -9.36564
49 1 -55.8779 49.1572 -50.5023
291 2 -103.56 12.284 21.4472
50 2 -55.6589 49.2261 -51.6394
122 2 38.9095 42.7808 -12.1812
290 2 -102.508 10.5217 22.5292
289 1 -103.034 11.4028 21.9882
191 2 -57.2506 -33.4884 19.5367
84 2 -71.9003 5.41419 62.542
190 1 -57.2625 -34.4624 18.9068
269 2 10.3966 73.9721 26.5409
237 2 15.9117 -29.7956 -9.26244
268 1 9.46073 73.383 26.891
192 2 -57.2744 -35.4364 18.2769
270 2 8.52482 72.7939 27.2412
247 1 13.0843 -59.9216 -6.33039
144 2 39.1052 -70.3689 27.8321
69 2 76.636 -59.41 -7.3112
248 2 13.264 -60.1079 -7.46113
249 2 12.9045 -59.7354 -5.19964
68 2 77.5996 -58.6111 -5.35784
96 2 -24.8304 86.9081 32.5496
142 1 39.9133 -71.0775 28.2684