LAMMPS data file for n2/co2

1200 atoms
4 atom types
800 bonds
2 bond types

0 36  xlo xhi
0 36  ylo yhi
0 36  zlo zhi

Masses

1 12.0107
2 15.9999
3 28.0134
4 2

Pair Coeffs # lj/cut/coul/long

1 0.0536548 2.8
2 0.15699 3.05
3 0 0
4 0.0715394 3.31

Atoms # full

1 1 1 0.7 17.176989 5.553201 25.543704 0 0 0
2 1 2 -0.35 17.695952 6.557686 25.803098 0 0 0
3 1 2 -0.35 16.658025 4.548715 25.284309 0 0 0
4 2 1 0.7 21.991716 15.690054 21.007762 0 0 0
5 2 2 -0.35 22.554096 14.772414 21.440503 0 0 0
6 2 2 -0.35 21.429336 16.607695 20.575021 0 0 0
7 3 1 0.7 15.430668 14.344904 16.650633 0 0 0
8 3 2 -0.35 15.769363 13.887331 15.639933 0 0 0
9 3 2 -0.35 15.091972 14.802476 17.661332 0 0 0
10 4 1 0.7 21.478729 10.808547 22.841199 0 0 0
11 4 2 -0.35 22.05559 10.055272 22.17381 0 0 0
12 4 2 -0.35 20.901868 11.561822 23.508588 0 0 0
13 5 1 0.7 10.993799 9.688359 16.907568 0 0 0
14 5 2 -0.35 11.858695 9.64747 17.679503 0 0 0
15 5 2 -0.35 10.128903 9.729247 16.135634 0 0 0
16 6 1 0.7 28.563751 5.496515 6.06491 0 0 0
17 6 2 -0.35 29.26639 6.418656 6.025475 0 0 0
18 6 2 -0.35 27.861113 4.574374 6.104345 0 0 0
19 7 1 0.7 3.691243 24.62808 12.898186 0 0 0
20 7 2 -0.35 4.455579 24.934284 12.0811 0 0 0
21 7 2 -0.35 2.926907 24.321876 13.715272 0 0 0
22 8 1 0.7 6.44864 22.339035 28.586484 0 0 0
23 8 2 -0.35 7.219758 22.521823 29.433576 0 0 0
24 8 2 -0.35 5.677523 22.156247 27.739391 0 0 0
25 9 1 0.7 26.357544 17.763275 15.024487 0 0 0
26 9 2 -0.35 26.655505 18.811437 14.626776 0 0 0
27 9 2 -0.35 26.059582 16.715112 15.422199 0 0 0
28 10 1 0.7 16.942668 18.252771 10.213181 0 0 0
29 10 2 -0.35 16.354455 17.543823 9.508199 0 0 0
30 10 2 -0.35 17.530882 18.961718 10.918162 0 0 0
31 11 1 0.7 27.46793 15.806433 18.085638 0 0 0
32 11 2 -0.35 27.708671 16.921789 18.294504 0 0 0
33 11 2 -0.35 27.227189 14.691077 17.876771 0 0 0
34 12 1 0.7 10.209705 16.987131 12.873981 0 0 0
35 12 2 -0.35 10.031554 15.843245 12.947374 0 0 0
36 12 2 -0.35 10.387856 18.131017 12.800588 0 0 0
37 13 1 0.7 25.983094 9.777115 16.83984 0 0 0
38 13 2 -0.35 25.41814 10.214929 15.926196 0 0 0
39 13 2 -0.35 26.548048 9.3393 17.753484 0 0 0
40 14 1 0.7 6.829549 6.480869 6.466588 0 0 0
41 14 2 -0.35 6.154061 5.656096 6.923825 0 0 0
42 14 2 -0.35 7.505037 7.305641 6.00935 0 0 0
43 15 1 0.7 6.739011 28.385104 16.552636 0 0 0
44 15 2 -0.35 6.742088 27.679092 17.473037 0 0 0
45 15 2 -0.35 6.735934 29.091115 15.632235 0 0 0
46 16 1 0.7 8.615293 14.084947 25.043119 0 0 0
47 16 2 -0.35 9.264506 13.126191 25.113183 0 0 0
48 16 2 -0.35 7.966081 15.043704 24.973055 0 0 0
49 17 1 0.7 3.850319 12.365547 22.2174 0 0 0
50 17 2 -0.35 4.249448 11.286064 22.072444 0 0 0
51 17 2 -0.35 3.45119 13.44503 22.362357 0 0 0
52 18 1 0.7 20.121773 24.87435 29.378132 0 0 0
53 18 2 -0.35 19.393485 23.981632 29.513226 0 0 0
54 18 2 -0.35 20.850062 25.767068 29.243038 0 0 0
55 19 1 0.7 13.367165 12.221525 26.611146 0 0 0
56 19 2 -0.35 13.347139 11.064131 26.536065 0 0 0
57 19 2 -0.35 13.387191 13.378919 26.686227 0 0 0
58 20 1 0.7 12.574013 2.770946 23.46995 0 0 0
59 20 2 -0.35 11.423352 2.778502 23.616657 0 0 0
60 20 2 -0.35 13.724674 2.763389 23.323243 0 0 0
61 21 1 0.7 25.188821 27.269177 21.886732 0 0 0
62 21 2 -0.35 24.522699 26.348296 22.118807 0 0 0
63 21 2 -0.35 25.854943 28.190059 21.654657 0 0 0
64 22 1 0.7 19.317393 14.188859 24.821428 0 0 0
65 22 2 -0.35 18.223987 14.491765 24.579951 0 0 0
66 22 2 -0.35 20.410799 13.885953 25.062905 0 0 0
67 23 1 0.7 11.152038 12.475882 3.659894 0 0 0
68 23 2 -0.35 12.102168 12.766797 4.258411 0 0 0
69 23 2 -0.35 10.201908 12.184966 3.061378 0 0 0
70 24 1 0.7 21.884238 17.290549 23.94165 0 0 0
71 24 2 -0.35 21.185842 17.859273 23.210627 0 0 0
72 24 2 -0.35 22.582635 16.721824 24.672674 0 0 0
73 25 1 0.7 10.928492 6.842796 12.414145 0 0 0
74 25 2 -0.35 11.419344 6.978019 11.37185 0 0 0
75 25 2 -0.35 10.43764 6.707573 13.45644 0 0 0
76 26 1 0.7 9.556305 14.447386 30.606506 0 0 0
77 26 2 -0.35 8.588493 15.08061 30.695766 0 0 0
78 26 2 -0.35 10.524116 13.814161 30.517245 0 0 0
79 27 1 0.7 9.582534 3.158849 21.558602 0 0 0
80 27 2 -0.35 9.355504 4.258044 21.851564 0 0 0
81 27 2 -0.35 9.809564 2.059653 21.26564 0 0 0
82 28 1 0.7 28.523066 25.624938 5.440863 0 0 0
83 28 2 -0.35 29.419229 26.038198 4.831185 0 0 0
84 28 2 -0.35 27.626902 25.211679 6.050541 0 0 0
85 29 1 0.7 6.839486 17.611481 28.358262 0 0 0
86 29 2 -0.35 6.05911 16.827733 28.008473 0 0 0
87 29 2 -0.35 7.619863 18.395228 28.708052 0 0 0
88 30 1 0.7 9.156011 7.135618 9.531794 0 0 0
89 30 2 -0.35 8.958962 7.154625 10.674777 0 0 0
90 30 2 -0.35 9.353061 7.116611 8.388811 0 0 0
91 31 1 0.7 3.566743 21.978204 30.267757 0 0 0
92 31 2 -0.35 3.433843 23.122968 30.135641 0 0 0
93 31 2 -0.35 3.699642 20.833441 30.399872 0 0 0
94 32 1 0.7 6.808248 31.246092 21.118483 0 0 0
95 32 2 -0.35 5.662043 31.177168 20.953971 0 0 0
96 32 2 -0.35 7.954452 31.315017 21.282995 0 0 0
97 33 1 0.7 26.281071 27.667352 29.376894 0 0 0
98 33 2 -0.35 26.005231 26.656383 29.87434 0 0 0
99 33 2 -0.35 26.55691 28.678322 28.879447 0 0 0
100 34 1 0.7 20.620613 15.879265 12.226118 0 0 0
101 34 2 -0.35 20.079114 16.632241 11.529408 0 0 0
102 34 2 -0.35 21.162113 15.126288 12.922828 0 0 0
103 35 1 0.7 3.061906 3.208571 30.044297 0 0 0
104 35 2 -0.35 2.105753 2.790112 29.538072 0 0 0
105 35 2 -0.35 4.018059 3.62703 30.550522 0 0 0
106 36 1 0.7 24.008292 17.575467 9.194943 0 0 0
107 36 2 -0.35 24.483094 16.518441 9.141471 0 0 0
108 36 2 -0.35 23.53349 18.632493 9.248416 0 0 0
109 37 1 0.7 25.539406 9.342907 12.172154 0 0 0
110 37 2 -0.35 26.402028 8.596077 12.381268 0 0 0
111 37 2 -0.35 24.676784 10.089737 11.96304 0 0 0
112 38 1 0.7 7.449288 13.496497 5.681917 0 0 0
113 38 2 -0.35 7.809234 12.533863 5.143982 0 0 0
114 38 2 -0.35 7.089342 14.459132 6.219851 0 0 0
115 39 1 0.7 13.191401 21.352058 14.233231 0 0 0
116 39 2 -0.35 12.651936 20.366883 13.943388 0 0 0
117 39 2 -0.35 13.730866 22.337232 14.523074 0 0 0
118 40 1 0.7 25.889197 25.68615 20.412822 0 0 0
119 40 2 -0.35 26.250581 24.767141 21.021446 0 0 0
120 40 2 -0.35 25.527812 26.605159 19.804197 0 0 0
121 41 1 0.7 13.415457 28.011765 24.861367 0 0 0
122 41 2 -0.35 14.131759 27.121907 25.063017 0 0 0
123 41 2 -0.35 12.699154 28.901623 24.659717 0 0 0
124 42 1 0.7 11.439355 8.722518 8.930282 0 0 0
125 42 2 -0.35 11.77203 8.023533 8.066369 0 0 0
126 42 2 -0.35 11.10668 9.421504 9.794196 0 0 0
127 43 1 0.7 3.85221 5.366471 28.046861 0 0 0
128 43 2 -0.35 2.945673 5.798273 28.627668 0 0 0
129 43 2 -0.35 4.758748 4.934669 27.466053 0 0 0
130 44 1 0.7 10.89185 5.907127 29.53589 0 0 0
131 44 2 -0.35 9.850933 6.22958 29.138253 0 0 0
132 44 2 -0.35 11.932768 5.584674 29.933527 0 0 0
133 45 1 0.7 12.567419 18.82037 3.992518 0 0 0
134 45 2 -0.35 11.622147 19.438527 4.256984 0 0 0
135 45 2 -0.35 13.51269 18.202212 3.728051 0 0 0
136 46 1 0.7 26.10006 27.006282 25.107587 0 0 0
137 46 2 -0.35 27.223823 26.879221 24.849495 0 0 0
138 46 2 -0.35 24.976296 27.133343 25.36568 0 0 0
139 47 1 0.7 30.083624 30.02395 9.677793 0 0 0
140 47 2 -0.35 30.065542 28.874458 9.832519 0 0 0
141 47 2 -0.35 30.101705 31.173443 9.523067 0 0 0
142 48 1 0.7 30.214907 8.426858 21.4284 0 0 0
143 48 2 -0.35 30.917038 9.17235 21.973244 0 0 0
144 48 2 -0.35 29.512776 7.681367 20.883556 0 0 0
145 49 1 0.7 21.31932 18.966739 15.626149 0 0 0
146 49 2 -0.35 20.730622 19.291959 14.681021 0 0 0
147 49 2 -0.35 21.908018 18.641518 16.571276 0 0 0
148 50 1 0.7 20.136797 2.287584 30.06128 0 0 0
149 50 2 -0.35 21.269015 2.087919 29.906956 0 0 0
150 50 2 -0.35 19.004579 2.48725 30.215605 0 0 0
151 51 1 0.7 24.304021 21.368848 6.082918 0 0 0
152 51 2 -0.35 25.153853 21.36176 6.872434 0 0 0
153 51 2 -0.35 23.454189 21.375936 5.293402 0 0 0
154 52 1 0.7 3.025703 12.345361 3.804572 0 0 0
155 52 2 -0.35 3.01815 13.440661 3.422655 0 0 0
156 52 2 -0.35 3.033256 11.250061 4.186488 0 0 0
157 53 1 0.7 22.833679 29.142063 14.003421 0 0 0
158 53 2 -0.35 21.778152 29.565813 14.231236 0 0 0
159 53 2 -0.35 23.889206 28.718313 13.775605 0 0 0
160 54 1 0.7 9.184194 23.117486 13.630779 0 0 0
161 54 2 -0.35 9.234138 22.233355 14.380057 0 0 0
162 54 2 -0.35 9.13425 24.001617 12.8815 0 0 0
163 55 1 0.7 27.225636 6.180239 18.648286 0 0 0
164 55 2 -0.35 27.197464 5.077037 19.005711 0 0 0
165 55 2 -0.35 27.253808 7.28344 18.290861 0 0 0
166 56 1 0.7 25.262634 30.975518 27.873189 0 0 0
167 56 2 -0.35 24.176909 31.027329 28.278301 0 0 0
168 56 2 -0.35 26.34836 30.923707 27.468077 0 0 0
169 57 1 0.7 21.340987 8.982557 29.925195 0 0 0
170 57 2 -0.35 22.458774 9.046971 29.621873 0 0 0
171 57 2 -0.35 20.223201 8.918143 30.228516 0 0 0
172 58 1 0.7 3.286344 13.997569 25.199714 0 0 0
173 58 2 -0.35 2.605861 13.679339 26.083611 0 0 0
174 58 2 -0.35 3.966827 14.315798 24.315818 0 0 0
175 59 1 0.7 21.987825 9.180417 25.916794 0 0 0
176 59 2 -0.35 20.940641 8.795344 25.599424 0 0 0
177 59 2 -0.35 23.035009 9.56549 26.234165 0 0 0
178 60 1 0.7 29.519927 21.78729 16.942865 0 0 0
179 60 2 -0.35 29.132977 21.50584 15.886145 0 0 0
180 60 2 -0.35 29.906877 22.068739 17.999584 0 0 0
181 61 1 0.7 30.725768 8.881261 9.811819 0 0 0
182 61 2 -0.35 30.151866 7.891469 9.620646 0 0 0
183 61 2 -0.35 31.29967 9.871054 10.002993 0 0 0
184 62 1 0.7 5.67731 18.121952 4.99345 0 0 0
185 62 2 -0.35 5.362021 19.013104 4.321109 0 0 0
186 62 2 -0.35 5.992598 17.230801 5.665791 0 0 0
187 63 1 0.7 31.653744 20.719999 21.950062 0 0 0
188 63 2 -0.35 31.342952 19.636008 21.678084 0 0 0
189 63 2 -0.35 31.964537 21.803989 22.22204 0 0 0
190 64 1 0.7 21.24088 25.637466 21.743231 0 0 0
191 64 2 -0.35 20.522387 24.776945 21.445117 0 0 0
192 64 2 -0.35 21.959373 26.497986 22.041345 0 0 0
193 65 1 0.7 24.795561 17.093634 5.90985 0 0 0
194 65 2 -0.35 25.014905 17.110447 7.048799 0 0 0
195 65 2 -0.35 24.576217 17.07682 4.770901 0 0 0
196 66 1 0.7 14.942136 26.079636 4.501025 0 0 0
197 66 2 -0.35 13.816267 25.817939 4.598662 0 0 0
198 66 2 -0.35 16.068005 26.341333 4.403387 0 0 0
199 67 1 0.7 30.947553 18.017865 19.947186 0 0 0
200 67 2 -0.35 31.981249 17.665021 19.556579 0 0 0
201 67 2 -0.35 29.913857 18.37071 20.337792 0 0 0
202 68 1 0.7 10.7758 14.089087 6.005321 0 0 0
203 68 2 -0.35 11.919981 13.926445 6.105308 0 0 0
204 68 2 -0.35 9.631619 14.251729 5.905333 0 0 0
205 69 1 0.7 13.365213 25.397851 26.476154 0 0 0
206 69 2 -0.35 14.250243 24.720578 26.798057 0 0 0
207 69 2 -0.35 12.480182 26.075124 26.154251 0 0 0
208 70 1 0.7 25.592237 23.837736 14.191311 0 0 0
209 70 2 -0.35 25.198748 24.693629 14.868225 0 0 0
210 70 2 -0.35 25.985726 22.981843 13.514397 0 0 0
211 71 1 0.7 10.238313 30.401468 27.099113 0 0 0
212 71 2 -0.35 9.260757 30.623727 26.515516 0 0 0
213 71 2 -0.35 11.215869 30.179209 27.68271 0 0 0
214 72 1 0.7 12.423019 8.511543 28.476046 0 0 0
215 72 2 -0.35 12.532497 7.361507 28.581087 0 0 0
216 72 2 -0.35 12.313541 9.661578 28.371006 0 0 0
217 73 1 0.7 13.931356 17.335299 15.776862 0 0 0
218 73 2 -0.35 14.57067 16.430304 16.120171 0 0 0
219 73 2 -0.35 13.292042 18.240294 15.433553 0 0 0
220 74 1 0.7 26.105468 9.070088 3.336968 0 0 0
221 74 2 -0.35 26.102582 8.612825 2.270899 0 0 0
222 74 2 -0.35 26.108353 9.527351 4.403036 0 0 0
223 75 1 0.7 17.35646 9.922523 21.224803 0 0 0
224 75 2 -0.35 18.243675 9.408193 21.766942 0 0 0
225 75 2 -0.35 16.469245 10.436853 20.682665 0 0 0
226 76 1 0.7 17.357972 24.628147 20.766793 0 0 0
227 76 2 -0.35 16.630436 25.251391 21.420902 0 0 0
228 76 2 -0.35 18.085508 24.004904 20.112684 0 0 0
229 77 1 0.7 14.613742 29.553345 21.026133 0 0 0
230 77 2 -0.35 14.909991 29.831888 19.93974 0 0 0
231 77 2 -0.35 14.317494 29.274801 22.112526 0 0 0
232 78 1 0.7 4.728302 13.679439 6.821977 0 0 0
233 78 2 -0.35 4.151207 12.958531 6.119943 0 0 0
234 78 2 -0.35 5.305397 14.400348 7.524012 0 0 0
235 79 1 0.7 31.827176 10.353827 14.487258 0 0 0
236 79 2 -0.35 31.725804 11.508923 14.454449 0 0 0
237 79 2 -0.35 31.928548 9.198731 14.520067 0 0 0
238 80 1 0.7 18.687594 14.628663 7.315566 0 0 0
239 80 2 -0.35 18.963572 15.041314 8.363972 0 0 0
240 80 2 -0.35 18.411615 14.216012 6.26716 0 0 0
241 81 1 0.7 12.851343 23.10312 26.226325 0 0 0
242 81 2 -0.35 12.618405 22.911003 27.346339 0 0 0
243 81 2 -0.35 13.084282 23.295236 25.106311 0 0 0
244 82 1 0.7 21.7798 13.115958 6.42775 0 0 0
245 82 2 -0.35 22.80111 12.692211 6.077088 0 0 0
246 82 2 -0.35 20.75849 13.539705 6.778413 0 0 0
247 83 1 0.7 13.899967 13.925414 7.497627 0 0 0
248 83 2 -0.35 13.457665 14.996672 7.448896 0 0 0
249 83 2 -0.35 14.34227 12.854156 7.546357 0 0 0
250 84 1 0.7 18.164421 20.989755 22.246219 0 0 0
251 84 2 -0.35 18.571655 20.037769 22.769176 0 0 0
252 84 2 -0.35 17.757187 21.94174 21.723262 0 0 0
253 85 1 0.7 4.798768 27.040417 31.624482 0 0 0
254 85 2 -0.35 5.847182 27.532951 31.562534 0 0 0
255 85 2 -0.35 3.750353 26.547883 31.68643 0 0 0
256 86 1 0.7 4.794724 29.591545 3.190405 0 0 0
257 86 2 -0.35 4.043436 29.130853 2.43613 0 0 0
258 86 2 -0.35 5.546012 30.052236 3.944679 0 0 0
259 87 1 0.7 3.552674 23.760938 4.797225 0 0 0
260 87 2 -0.35 4.027645 24.399505 5.641165 0 0 0
261 87 2 -0.35 3.077704 23.122371 3.953285 0 0 0
262 88 1 0.7 3.615092 19.988557 25.25994 0 0 0
263 88 2 -0.35 3.648283 18.872346 25.573901 0 0 0
264 88 2 -0.35 3.581902 21.104768 24.945979 0 0 0
265 89 1 0.7 15.153002 8.299504 17.859297 0 0 0
266 89 2 -0.35 15.198993 8.827676 18.891053 0 0 0
267 89 2 -0.35 15.107011 7.771333 16.827542 0 0 0
268 90 1 0.7 27.632838 25.088045 29.218529 0 0 0
269 90 2 -0.35 27.871438 25.806785 28.339846 0 0 0
270 90 2 -0.35 27.394239 24.369306 30.097212 0 0 0
271 91 1 0.7 10.850439 24.255953 22.820444 0 0 0
272 91 2 -0.35 11.211169 23.420262 23.539537 0 0 0
273 91 2 -0.35 10.489708 25.091644 22.101351 0 0 0
274 92 1 0.7 26.060302 27.939968 13.015223 0 0 0
275 92 2 -0.35 25.972471 28.866514 12.322837 0 0 0
276 92 2 -0.35 26.148132 27.013423 13.707609 0 0 0
277 93 1 0.7 24.841025 3.086268 30.522019 0 0 0
278 93 2 -0.35 25.972573 2.936775 30.315018 0 0 0
279 93 2 -0.35 23.709476 3.235761 30.729019 0 0 0
280 94 1 0.7 8.691589 4.186117 9.260081 0 0 0
281 94 2 -0.35 9.738174 4.636293 9.041905 0 0 0
282 94 2 -0.35 7.645003 3.735941 9.478257 0 0 0
283 95 1 0.7 6.365866 4.981919 4.202464 0 0 0
284 95 2 -0.35 6.890865 4.033958 4.616403 0 0 0
285 95 2 -0.35 5.840866 5.92988 3.788525 0 0 0
286 96 1 0.7 8.443403 13.449239 17.298154 0 0 0
287 96 2 -0.35 7.650497 12.609069 17.193205 0 0 0
288 96 2 -0.35 9.236309 14.289409 17.403104 0 0 0
289 97 1 0.7 2.64398 21.807881 11.908645 0 0 0
290 97 2 -0.35 2.447524 22.259263 10.858283 0 0 0
291 97 2 -0.35 2.840436 21.3565 12.959006 0 0 0
292 98 1 0.7 16.004009 3.378582 10.841722 0 0 0
293 98 2 -0.35 16.886632 3.862252 11.418472 0 0 0
294 98 2 -0.35 15.121387 2.894913 10.264972 0 0 0
295 99 1 0.7 23.284272 6.419879 29.067711 0 0 0
296 99 2 -0.35 24.047231 7.016819 28.429623 0 0 0
297 99 2 -0.35 22.521314 5.822939 29.7058 0 0 0
298 100 1 0.7 14.749101 24.010884 6.181363 0 0 0
299 100 2 -0.35 14.61739 22.981254 5.663566 0 0 0
300 100 2 -0.35 14.880812 25.040514 6.699161 0 0 0
301 101 1 0.7 29.630891 14.881064 15.005998 0 0 0
302 101 2 -0.35 29.074574 15.255312 15.952597 0 0 0
303 101 2 -0.35 30.187208 14.506816 14.059399 0 0 0
304 102 1 0.7 31.351279 23.051886 14.707748 0 0 0
305 102 2 -0.35 30.818119 23.768459 13.96757 0 0 0
306 102 2 -0.35 31.884439 22.335312 15.447926 0 0 0
307 103 1 0.7 13.371395 10.992067 6.367787 0 0 0
308 103 2 -0.35 12.61772 11.87361 6.389139 0 0 0
309 103 2 -0.35 14.12507 10.110524 6.346436 0 0 0
310 104 1 0.7 23.28044 28.057983 27.847875 0 0 0
311 104 2 -0.35 22.980366 28.989639 28.470429 0 0 0
312 104 2 -0.35 23.580514 27.126327 27.225322 0 0 0
313 105 1 0.7 10.845263 18.658899 16.13124 0 0 0
314 105 2 -0.35 10.630739 18.17189 15.100511 0 0 0
315 105 2 -0.35 11.059787 19.145907 17.161969 0 0 0
316 106 1 0.7 27.738886 16.139305 9.504918 0 0 0
317 106 2 -0.35 28.325485 15.822142 10.454081 0 0 0
318 106 2 -0.35 27.152287 16.456467 8.555755 0 0 0
319 107 1 0.7 13.066147 3.700584 16.890499 0 0 0
320 107 2 -0.35 13.086476 3.829046 18.043185 0 0 0
321 107 2 -0.35 13.045818 3.572122 15.737813 0 0 0
322 108 1 0.7 22.568012 28.502841 2.459984 0 0 0
323 108 2 -0.35 23.465036 27.792718 2.651487 0 0 0
324 108 2 -0.35 21.670988 29.212964 2.26848 0 0 0
325 109 1 0.7 15.867868 16.323318 5.878284 0 0 0
326 109 2 -0.35 15.610608 15.207353 6.062783 0 0 0
327 109 2 -0.35 16.125127 17.439283 5.693784 0 0 0
328 110 1 0.7 5.278487 20.305751 11.557022 0 0 0
329 110 2 -0.35 4.24811 20.442586 11.042048 0 0 0
330 110 2 -0.35 6.308864 20.168916 12.071997 0 0 0
331 111 1 0.7 17.368275 7.175946 17.526219 0 0 0
332 111 2 -0.35 17.776043 8.259314 17.601314 0 0 0
333 111 2 -0.35 16.960507 6.092578 17.451124 0 0 0
334 112 1 0.7 11.579556 16.1593 21.469746 0 0 0
335 112 2 -0.35 10.745926 16.864956 21.078963 0 0 0
336 112 2 -0.35 12.413185 15.453644 21.860528 0 0 0
337 113 1 0.7 17.942449 21.891342 10.564388 0 0 0
338 113 2 -0.35 18.121826 22.519403 11.523013 0 0 0
339 113 2 -0.35 17.763073 21.26328 9.605762 0 0 0
340 114 1 0.7 5.491099 30.501416 7.384542 0 0 0
341 114 2 -0.35 5.752577 31.480016 6.819236 0 0 0
342 114 2 -0.35 5.229622 29.522815 7.949848 0 0 0
343 115 1 0.7 15.095698 12.639829 20.182803 0 0 0
344 115 2 -0.35 14.970352 13.506796 20.943235 0 0 0
345 115 2 -0.35 15.221044 11.772862 19.422372 0 0 0
346 116 1 0.7 19.501061 27.074429 23.49833 0 0 0
347 116 2 -0.35 19.004492 26.026221 23.515026 0 0 0
348 116 2 -0.35 19.997629 28.122638 23.481633 0 0 0
349 117 1 0.7 3.642082 15.626898 21.224844 0 0 0
350 117 2 -0.35 3.60656 16.573846 21.893893 0 0 0
351 117 2 -0.35 3.677605 14.67995 20.555795 0 0 0
352 118 1 0.7 25.900894 20.393338 23.834084 0 0 0
353 118 2 -0.35 25.918726 21.263455 23.067155 0 0 0
354 118 2 -0.35 25.883063 19.523222 24.601013 0 0 0
355 119 1 0.7 16.978587 25.551386 25.954507 0 0 0
356 119 2 -0.35 16.766617 25.122522 27.011268 0 0 0
357 119 2 -0.35 17.190557 25.980251 24.897746 0 0 0
358 120 1 0.7 14.631318 18.816659 11.41538 0 0 0
359 120 2 -0.35 14.595464 17.657714 11.381293 0 0 0
360 120 2 -0.35 14.667171 19.975604 11.449467 0 0 0
361 121 1 0.7 4.045208 3.53061 7.541182 0 0 0
362 121 2 -0.35 4.925224 4.15673 7.964438 0 0 0
363 121 2 -0.35 3.165192 2.90449 7.117926 0 0 0
364 122 1 0.7 6.812351 5.956151 15.743788 0 0 0
365 122 2 -0.35 7.609845 5.134044 15.927479 0 0 0
366 122 2 -0.35 6.014856 6.778258 15.560097 0 0 0
367 123 1 0.7 5.274236 12.17002 10.332249 0 0 0
368 123 2 -0.35 4.648797 12.277122 9.36119 0 0 0
369 123 2 -0.35 5.899675 12.062917 11.303307 0 0 0
370 124 1 0.7 4.894155 28.846089 24.361878 0 0 0
371 124 2 -0.35 5.380961 28.170263 25.169268 0 0 0
372 124 2 -0.35 4.407348 29.521915 23.554487 0 0 0
373 125 1 0.7 13.044283 11.461277 21.923819 0 0 0
374 125 2 -0.35 12.094201 10.933221 21.518724 0 0 0
375 125 2 -0.35 13.994364 11.989333 22.328915 0 0 0
376 126 1 0.7 7.789804 8.021236 18.518284 0 0 0
377 126 2 -0.35 6.667691 7.765602 18.372977 0 0 0
378 126 2 -0.35 8.911917 8.27687 18.663591 0 0 0
379 127 1 0.7 17.226696 27.322576 19.737861 0 0 0
380 127 2 -0.35 18.057751 26.51597 19.803701 0 0 0
381 127 2 -0.35 16.395642 28.129182 19.672022 0 0 0
382 128 1 0.7 30.209964 19.308505 8.435844 0 0 0
383 128 2 -0.35 29.77829 18.282019 8.110906 0 0 0
384 128 2 -0.35 30.641637 20.334991 8.760782 0 0 0
385 129 1 0.7 20.532023 17.165918 28.624266 0 0 0
386 129 2 -0.35 21.110003 16.16019 28.631399 0 0 0
387 129 2 -0.35 19.954042 18.171645 28.617133 0 0 0
388 130 1 0.7 16.742175 12.975336 25.473638 0 0 0
389 130 2 -0.35 16.012465 13.312459 24.637294 0 0 0
390 130 2 -0.35 17.471885 12.638212 26.309982 0 0 0
391 131 1 0.7 11.151688 12.782024 22.663313 0 0 0
392 131 2 -0.35 11.784761 13.263755 21.819065 0 0 0
393 131 2 -0.35 10.518614 12.300293 23.50756 0 0 0
394 132 1 0.7 5.682806 12.861076 28.351265 0 0 0
395 132 2 -0.35 5.81564 13.889482 28.871203 0 0 0
396 132 2 -0.35 5.549972 11.83267 27.831326 0 0 0
397 133 1 0.7 3.045978 21.085886 7.962304 0 0 0
398 133 2 -0.35 2.287712 20.966327 7.092626 0 0 0
399 133 2 -0.35 3.804243 21.205445 8.831982 0 0 0
400 134 1 0.7 2.683029 2.452147 16.833627 0 0 0
401 134 2 -0.35 2.744352 2.010764 17.904617 0 0 0
402 134 2 -0.35 2.621706 2.893531 15.762637 0 0 0
403 135 1 0.7 27.637091 7.765993 15.062208 0 0 0
404 135 2 -0.35 27.598038 7.916941 16.211682 0 0 0
405 135 2 -0.35 27.676145 7.615045 13.912734 0 0 0
406 136 1 0.7 12.445982 15.80511 10.286725 0 0 0
407 136 2 -0.35 11.718042 16.70827 10.28468 0 0 0
408 136 2 -0.35 13.173922 14.901949 10.28877 0 0 0
409 137 1 0.7 10.300978 25.339811 16.233693 0 0 0
410 137 2 -0.35 11.430258 25.424158 15.982271 0 0 0
411 137 2 -0.35 9.171698 25.255465 16.485115 0 0 0
412 138 1 0.7 19.246637 17.034717 6.741863 0 0 0
413 138 2 -0.35 20.35869 17.353216 6.655281 0 0 0
414 138 2 -0.35 18.134584 16.716217 6.828446 0 0 0
415 139 1 0.7 5.610112 9.900311 24.15341 0 0 0
416 139 2 -0.35 5.999314 10.166943 23.09368 0 0 0
417 139 2 -0.35 5.220909 9.633679 25.213141 0 0 0
418 140 1 0.7 14.33432 16.877342 19.792389 0 0 0
419 140 2 -0.35 13.987225 15.82144 19.460432 0 0 0
420 140 2 -0.35 14.681415 17.933245 20.124346 0 0 0
421 141 1 0.7 13.292057 31.538841 22.853242 0 0 0
422 141 2 -0.35 13.931905 31.905723 21.957926 0 0 0
423 141 2 -0.35 12.652208 31.17196 23.748559 0 0 0
424 142 1 0.7 7.001034 4.661841 13.72037 0 0 0
425 142 2 -0.35 6.705594 3.588064 14.044896 0 0 0
426 142 2 -0.35 7.296475 5.735619 13.395845 0 0 0
427 143 1 0.7 7.785548 20.94935 10.329967 0 0 0
428 143 2 -0.35 8.47756 20.099225 10.70945 0 0 0
429 143 2 -0.35 7.093537 21.799475 9.950484 0 0 0
430 144 1 0.7 3.37642 28.256785 27.332059 0 0 0
431 144 2 -0.35 3.907658 27.225714 27.315387 0 0 0
432 144 2 -0.35 2.845182 29.287856 27.348732 0 0 0
433 145 1 0.7 24.575827 12.182969 22.946223 0 0 0
434 145 2 -0.35 25.327894 13.014122 22.647593 0 0 0
435 145 2 -0.35 23.823759 11.351817 23.244852 0 0 0
436 146 1 0.7 7.400912 10.101797 3.869801 0 0 0
437 146 2 -0.35 8.462817 10.475502 3.589978 0 0 0
438 146 2 -0.35 6.339006 9.728091 4.149624 0 0 0
439 147 1 0.7 15.941739 27.844793 12.68755 0 0 0
440 147 2 -0.35 16.683019 27.201272 12.0695 0 0 0
441 147 2 -0.35 15.20046 28.488314 13.305601 0 0 0
442 148 1 0.7 30.980257 12.776261 18.639308 0 0 0
443 148 2 -0.35 31.999261 13.323048 18.54845 0 0 0
444 148 2 -0.35 29.961254 12.229473 18.730166 0 0 0
445 149 1 0.7 7.758751 26.797005 3.626536 0 0 0
446 149 2 -0.35 8.329753 27.537189 4.313329 0 0 0
447 149 2 -0.35 7.18775 26.05682 2.939743 0 0 0
448 150 1 0.7 19.139585 11.474774 9.140751 0 0 0
449 150 2 -0.35 19.938785 12.310365 9.047657 0 0 0
450 150 2 -0.35 18.340385 10.639183 9.233844 0 0 0
451 151 1 0.7 29.769575 15.39461 8.300247 0 0 0
452 151 2 -0.35 28.970752 14.559522 8.4008 0 0 0
453 151 2 -0.35 30.568397 16.229698 8.199693 0 0 0
454 152 1 0.7 5.398328 8.860661 12.207038 0 0 0
455 152 2 -0.35 5.398079 7.766911 12.593445 0 0 0
456 152 2 -0.35 5.398577 9.954411 11.820631 0 0 0
457 153 1 0.7 27.426361 21.398943 12.303876 0 0 0
458 153 2 -0.35 27.990611 22.399941 12.462695 0 0 0
459 153 2 -0.35 26.862111 20.397944 12.145057 0 0 0
460 154 1 0.7 7.201433 8.284828 21.339561 0 0 0
461 154 2 -0.35 6.087663 8.608863 21.350415 0 0 0
462 154 2 -0.35 8.315204 7.960794 21.328707 0 0 0
463 155 1 0.7 5.809754 24.507985 8.668058 0 0 0
464 155 2 -0.35 6.872109 24.642112 8.221952 0 0 0
465 155 2 -0.35 4.747399 24.373858 9.114165 0 0 0
466 156 1 0.7 24.986341 22.785704 4.071871 0 0 0
467 156 2 -0.35 23.975001 23.344425 3.968814 0 0 0
468 156 2 -0.35 25.997682 22.226983 4.174929 0 0 0
469 157 1 0.7 4.824645 18.713471 13.240057 0 0 0
470 157 2 -0.35 4.56883 17.941981 12.412434 0 0 0
471 157 2 -0.35 5.080461 19.484962 14.06768 0 0 0
472 158 1 0.7 13.512433 17.244021 13.480921 0 0 0
473 158 2 -0.35 13.625686 16.119678 13.742887 0 0 0
474 158 2 -0.35 13.399181 18.368364 13.218954 0 0 0
475 159 1 0.7 9.763813 25.640474 27.069003 0 0 0
476 159 2 -0.35 9.920363 24.62057 27.598991 0 0 0
477 159 2 -0.35 9.607263 26.660379 26.539015 0 0 0
478 160 1 0.7 23.958245 27.059826 15.883576 0 0 0
479 160 2 -0.35 22.971365 26.454873 15.959068 0 0 0
480 160 2 -0.35 24.945125 27.66478 15.808085 0 0 0
481 161 1 0.7 3.788026 5.674593 24.510782 0 0 0
482 161 2 -0.35 3.465066 6.577963 23.858693 0 0 0
483 161 2 -0.35 4.110985 4.771223 25.162871 0 0 0
484 162 1 0.7 13.822472 5.381768 24.362676 0 0 0
485 162 2 -0.35 12.725641 5.004267 24.355293 0 0 0
486 162 2 -0.35 14.919303 5.759269 24.370059 0 0 0
487 163 1 0.7 8.198461 20.784743 4.615114 0 0 0
488 163 2 -0.35 7.338679 21.561261 4.673373 0 0 0
489 163 2 -0.35 9.058243 20.008225 4.556855 0 0 0
490 164 1 0.7 7.826462 13.640826 2.793602 0 0 0
491 164 2 -0.35 7.148088 14.166691 3.573906 0 0 0
492 164 2 -0.35 8.504836 13.11496 2.013298 0 0 0
493 165 1 0.7 20.519826 21.700747 6.528495 0 0 0
494 165 2 -0.35 21.629555 21.922199 6.783562 0 0 0
495 165 2 -0.35 19.410096 21.479295 6.273429 0 0 0
496 166 1 0.7 12.246527 22.554839 2.089817 0 0 0
497 166 2 -0.35 12.586992 23.661846 2.024846 0 0 0
498 166 2 -0.35 11.906063 21.447833 2.154788 0 0 0
499 167 1 0.7 23.712007 22.476663 19.311479 0 0 0
500 167 2 -0.35 22.614455 22.848091 19.256505 0 0 0
501 167 2 -0.35 24.809558 22.105235 19.366454 0 0 0
502 168 1 0.7 31.301188 22.696023 3.101214 0 0 0
503 168 2 -0.35 31.215367 23.838065 2.916897 0 0 0
504 168 2 -0.35 31.38701 21.55398 3.285531 0 0 0
505 169 1 0.7 17.759404 25.419902 9.13079 0 0 0
506 169 2 -0.35 18.829099 25.232649 8.723005 0 0 0
507 169 2 -0.35 16.689709 25.607156 9.538576 0 0 0
508 170 1 0.7 11.795324 9.35127 2.475339 0 0 0
509 170 2 -0.35 12.219428 10.343963 2.899953 0 0 0
510 170 2 -0.35 11.371221 8.358577 2.050726 0 0 0
511 171 1 0.7 6.155513 24.119043 3.070921 0 0 0
512 171 2 -0.35 5.603406 24.125486 4.091086 0 0 0
513 171 2 -0.35 6.707619 24.112599 2.050755 0 0 0
514 172 1 0.7 19.613509 23.142431 8.374398 0 0 0
515 172 2 -0.35 20.683082 23.34282 8.776215 0 0 0
516 172 2 -0.35 18.543935 22.942043 7.972581 0 0 0
517 173 1 0.7 7.516641 24.148823 17.552941 0 0 0
518 173 2 -0.35 7.048182 25.118187 17.121109 0 0 0
519 173 2 -0.35 7.985101 23.179459 17.984773 0 0 0
520 174 1 0.7 26.274577 5.158959 2.405935 0 0 0
521 174 2 -0.35 27.364844 4.854221 2.152846 0 0 0
522 174 2 -0.35 25.184311 5.463697 2.659023 0 0 0
523 175 1 0.7 11.388314 19.106892 9.233137 0 0 0
524 175 2 -0.35 10.492706 18.370444 9.266793 0 0 0
525 175 2 -0.35 12.283921 19.843339 9.19948 0 0 0
526 176 1 0.7 28.320698 27.509621 2.438454 0 0 0
527 176 2 -0.35 27.414823 26.795853 2.313857 0 0 0
528 176 2 -0.35 29.226574 28.223389 2.563051 0 0 0
529 177 1 0.7 13.441802 26.201677 22.623619 0 0 0
530 177 2 -0.35 13.118486 27.310381 22.514794 0 0 0
531 177 2 -0.35 13.765118 25.092973 22.732443 0 0 0
532 178 1 0.7 31.069702 28.68553 12.947606 0 0 0
533 178 2 -0.35 31.241585 29.785063 13.274842 0 0 0
534 178 2 -0.35 30.897819 27.585996 12.620371 0 0 0
535 179 1 0.7 15.094515 28.656486 26.421001 0 0 0
536 179 2 -0.35 15.849959 28.624939 25.541279 0 0 0
537 179 2 -0.35 14.339072 28.688033 27.300722 0 0 0
538 180 1 0.7 14.316139 20.008062 24.763518 0 0 0
539 180 2 -0.35 13.314807 20.593426 24.746708 0 0 0
540 180 2 -0.35 15.317471 19.422698 24.780328 0 0 0
541 181 1 0.7 2.733568 27.012149 14.591704 0 0 0
542 181 2 -0.35 3.519024 26.594341 15.336079 0 0 0
543 181 2 -0.35 1.948112 27.429957 13.847329 0 0 0
544 182 1 0.7 26.455941 28.69067 3.306081 0 0 0
545 182 2 -0.35 26.206963 28.093419 4.268839 0 0 0
546 182 2 -0.35 26.704919 29.28792 2.343324 0 0 0
547 183 1 0.7 4.376922 23.537694 22.168855 0 0 0
548 183 2 -0.35 4.293642 22.47614 21.708671 0 0 0
549 183 2 -0.35 4.460202 24.599247 22.629038 0 0 0
550 184 1 0.7 9.937417 16.36572 18.62472 0 0 0
551 184 2 -0.35 8.876262 16.702974 18.299436 0 0 0
552 184 2 -0.35 10.998572 16.028466 18.950005 0 0 0
553 185 1 0.7 22.681524 25.310035 19.233148 0 0 0
554 185 2 -0.35 23.68811 25.790362 18.914287 0 0 0
555 185 2 -0.35 21.674938 24.829709 19.552008 0 0 0
556 186 1 0.7 8.102308 10.97894 25.714245 0 0 0
557 186 2 -0.35 9.084789 10.369816 25.617808 0 0 0
558 186 2 -0.35 7.119828 11.588064 25.810681 0 0 0
559 187 1 0.7 7.194046 10.929157 8.777996 0 0 0
560 187 2 -0.35 7.687251 10.948028 9.827754 0 0 0
561 187 2 -0.35 6.700841 10.910286 7.728237 0 0 0
562 188 1 0.7 15.089679 11.743177 15.69309 0 0 0
563 188 2 -0.35 14.022462 11.849961 15.251225 0 0 0
564 188 2 -0.35 16.156896 11.636394 16.134955 0 0 0
565 189 1 0.7 14.501423 19.127235 17.453086 0 0 0
566 189 2 -0.35 13.491211 19.60766 17.146062 0 0 0
567 189 2 -0.35 15.511635 18.646811 17.76011 0 0 0
568 190 1 0.7 9.784608 3.575779 13.213418 0 0 0
569 190 2 -0.35 10.003281 2.491624 13.56326 0 0 0
570 190 2 -0.35 9.565935 4.659934 12.863575 0 0 0
571 191 1 0.7 18.069577 12.811483 22.5237 0 0 0
572 191 2 -0.35 18.975882 12.087778 22.502166 0 0 0
573 191 2 -0.35 17.163273 13.535187 22.545234 0 0 0
574 192 1 0.7 6.273983 13.011967 22.885008 0 0 0
575 192 2 -0.35 6.439263 12.327296 23.806695 0 0 0
576 192 2 -0.35 6.108703 13.696638 21.96332 0 0 0
577 193 1 0.7 13.353213 22.862177 20.217044 0 0 0
578 193 2 -0.35 12.329521 23.25427 20.596409 0 0 0
579 193 2 -0.35 14.376905 22.470084 19.837679 0 0 0
580 194 1 0.7 22.715454 8.998916 2.616683 0 0 0
581 194 2 -0.35 21.566367 8.854866 2.549974 0 0 0
582 194 2 -0.35 23.86454 9.142966 2.683392 0 0 0
583 195 1 0.7 17.210909 11.123194 11.155567 0 0 0
584 195 2 -0.35 16.53678 10.179206 11.16156 0 0 0
585 195 2 -0.35 17.885038 12.067183 11.149574 0 0 0
586 196 1 0.7 27.693564 5.338011 12.374567 0 0 0
587 196 2 -0.35 27.817487 5.695259 11.277928 0 0 0
588 196 2 -0.35 27.569641 4.980762 13.471206 0 0 0
589 197 1 0.7 8.234676 17.366698 30.975385 0 0 0
590 197 2 -0.35 9.392426 17.43847 30.983377 0 0 0
591 197 2 -0.35 7.076926 17.294925 30.967394 0 0 0
592 198 1 0.7 5.081475 8.085316 31.474335 0 0 0
593 198 2 -0.35 5.26978 6.953885 31.301118 0 0 0
594 198 2 -0.35 4.89317 9.216748 31.647552 0 0 0
595 199 1 0.7 25.410487 24.168445 17.461511 0 0 0
596 199 2 -0.35 26.545507 24.377882 17.345467 0 0 0
597 199 2 -0.35 24.275467 23.959008 17.577556 0 0 0
598 200 1 0.7 8.208323 11.199901 19.683678 0 0 0
599 200 2 -0.35 7.058463 11.344149 19.632539 0 0 0
600 200 2 -0.35 9.358183 11.055653 19.734817 0 0 0
601 201 1 0.7 30.016849 10.526664 25.778255 0 0 0