LAMMPS data file for n2/co2

1500 atoms
4 atom types
1000 bonds
2 bond types

0 36  xlo xhi
0 36  ylo yhi
0 36  zlo zhi

Masses

1 12.0107
2 15.9999
3 28.0134
4 2

Pair Coeffs # lj/cut/coul/long

1 0.0536548 2.8
2 0.15699 3.05
3 0 0
4 0.0715394 3.31

Atoms # full

1 1 1 0.7 8.920031 15.331694 18.133226 0 0 0
2 1 2 -0.35 8.006936 15.052141 18.791791 0 0 0
3 1 2 -0.35 9.833126 15.611247 17.474661 0 0 0
4 2 1 0.7 22.931794 24.612175 20.505295 0 0 0
5 2 2 -0.35 21.835971 24.239707 20.42758 0 0 0
6 2 2 -0.35 24.027618 24.984642 20.583011 0 0 0
7 3 1 0.7 7.952009 10.349037 25.454085 0 0 0
8 3 2 -0.35 9.086195 10.310028 25.213876 0 0 0
9 3 2 -0.35 6.817823 10.388046 25.694294 0 0 0
10 4 1 0.7 7.229813 11.451254 8.672403 0 0 0
11 4 2 -0.35 7.910248 11.762671 9.558759 0 0 0
12 4 2 -0.35 6.549378 11.139836 7.786047 0 0 0
13 5 1 0.7 13.894416 10.763277 14.664527 0 0 0
14 5 2 -0.35 13.490101 9.719715 14.359391 0 0 0
15 5 2 -0.35 14.29873 11.806839 14.969664 0 0 0
16 6 1 0.7 14.595683 18.814079 17.454193 0 0 0
17 6 2 -0.35 14.576238 18.451287 16.352556 0 0 0
18 6 2 -0.35 14.615128 19.176871 18.55583 0 0 0
19 7 1 0.7 9.547906 3.535861 12.481224 0 0 0
20 7 2 -0.35 9.407224 2.388025 12.390228 0 0 0
21 7 2 -0.35 9.688589 4.683697 12.572221 0 0 0
22 8 1 0.7 18.751625 12.414965 24.417404 0 0 0
23 8 2 -0.35 17.97521 12.259746 25.265158 0 0 0
24 8 2 -0.35 19.52804 12.570184 23.56965 0 0 0
25 9 1 0.7 6.016814 11.793147 22.52827 0 0 0
26 9 2 -0.35 6.243931 11.445965 23.611544 0 0 0
27 9 2 -0.35 5.789697 12.140329 21.444997 0 0 0
28 10 1 0.7 13.177705 23.80366 20.551695 0 0 0
29 10 2 -0.35 14.335916 23.795628 20.487792 0 0 0
30 10 2 -0.35 12.019494 23.811692 20.615599 0 0 0
31 11 1 0.7 22.592687 9.176333 3.091142 0 0 0
32 11 2 -0.35 23.698648 8.842005 3.194465 0 0 0
33 11 2 -0.35 21.486726 9.510661 2.987819 0 0 0
34 12 1 0.7 18.449269 10.938698 10.454729 0 0 0
35 12 2 -0.35 18.989468 11.960513 10.35634 0 0 0
36 12 2 -0.35 17.909071 9.916884 10.553118 0 0 0
37 13 1 0.7 27.173098 4.641087 11.409756 0 0 0
38 13 2 -0.35 26.452776 3.994831 10.770156 0 0 0
39 13 2 -0.35 27.893421 5.287343 12.049356 0 0 0
40 14 1 0.7 8.352453 17.225156 30.859524 0 0 0
41 14 2 -0.35 9.275589 17.922127 30.772042 0 0 0
42 14 2 -0.35 7.429318 16.528186 30.947007 0 0 0
43 15 1 0.7 5.041716 8.206385 31.663487 0 0 0
44 15 2 -0.35 5.081615 7.097002 32.000053 0 0 0
45 15 2 -0.35 5.001816 9.315768 31.32692 0 0 0
46 16 1 0.7 24.997833 23.981027 18.263764 0 0 0
47 16 2 -0.35 25.341341 23.060533 18.880443 0 0 0
48 16 2 -0.35 24.654324 24.901521 17.647085 0 0 0
49 17 1 0.7 8.519318 11.466881 19.042652 0 0 0
50 17 2 -0.35 7.374657 11.494617 19.228615 0 0 0
51 17 2 -0.35 9.663979 11.439146 18.856688 0 0 0
52 18 1 0.7 30.244529 10.313475 26.12244 0 0 0
53 18 2 -0.35 29.894469 9.28537 25.714937 0 0 0
54 18 2 -0.35 30.59459 11.341579 26.529943 0 0 0
55 19 1 0.7 16.557472 26.424072 6.809094 0 0 0
56 19 2 -0.35 16.807189 26.529312 5.681191 0 0 0
57 19 2 -0.35 16.307754 26.318832 7.936997 0 0 0
58 20 1 0.7 13.904036 21.917712 26.587459 0 0 0
59 20 2 -0.35 14.45617 22.93769 26.607314 0 0 0
60 20 2 -0.35 13.351902 20.897735 26.567604 0 0 0
61 21 1 0.7 23.695901 11.120301 16.14948 0 0 0
62 21 2 -0.35 24.521884 10.317994 16.289677 0 0 0
63 21 2 -0.35 22.869919 11.922609 16.009283 0 0 0
64 22 1 0.7 15.276893 2.443604 19.348466 0 0 0
65 22 2 -0.35 16.1998 2.267494 20.028781 0 0 0
66 22 2 -0.35 14.353986 2.619713 18.668151 0 0 0
67 23 1 0.7 2.927805 27.183768 29.48029 0 0 0
68 23 2 -0.35 2.000411 27.854224 29.670106 0 0 0
69 23 2 -0.35 3.855199 26.513313 29.290475 0 0 0
70 24 1 0.7 12.204553 22.638277 12.069399 0 0 0
71 24 2 -0.35 11.089879 22.926298 12.211334 0 0 0
72 24 2 -0.35 13.319227 22.350256 11.927464 0 0 0
73 25 1 0.7 21.582947 27.701738 2.345121 0 0 0
74 25 2 -0.35 21.32143 26.642472 1.95121 0 0 0
75 25 2 -0.35 21.844464 28.761003 2.739032 0 0 0
76 26 1 0.7 29.577711 6.387087 18.882036 0 0 0
77 26 2 -0.35 28.546282 6.788069 19.22984 0 0 0
78 26 2 -0.35 30.60914 5.986105 18.534232 0 0 0
79 27 1 0.7 28.633549 14.356486 8.676879 0 0 0
80 27 2 -0.35 29.427755 13.729258 8.109938 0 0 0
81 27 2 -0.35 27.839344 14.983715 9.24382 0 0 0
82 28 1 0.7 13.537104 15.611901 27.658194 0 0 0
83 28 2 -0.35 12.906069 16.52348 27.316993 0 0 0
84 28 2 -0.35 14.168139 14.700321 27.999395 0 0 0
85 29 1 0.7 8.865144 25.487991 15.575886 0 0 0
86 29 2 -0.35 8.287831 25.15985 16.527008 0 0 0
87 29 2 -0.35 9.442456 25.816133 14.624763 0 0 0
88 30 1 0.7 23.854701 11.464551 4.179446 0 0 0
89 30 2 -0.35 22.698692 11.404595 4.254594 0 0 0
90 30 2 -0.35 25.010711 11.524507 4.104297 0 0 0
91 31 1 0.7 19.481009 21.567498 27.244497 0 0 0
92 31 2 -0.35 19.885231 21.90639 26.211368 0 0 0
93 31 2 -0.35 19.076787 21.228606 28.277627 0 0 0
94 32 1 0.7 24.398885 20.390651 13.620673 0 0 0
95 32 2 -0.35 24.182441 20.619371 12.504233 0 0 0
96 32 2 -0.35 24.61533 20.161932 14.737113 0 0 0
97 33 1 0.7 22.489845 4.333594 3.820884 0 0 0
98 33 2 -0.35 21.74963 3.502286 4.147391 0 0 0
99 33 2 -0.35 23.230061 5.164903 3.494378 0 0 0
100 34 1 0.7 15.899233 30.260735 5.155438 0 0 0
101 34 2 -0.35 16.891419 29.895266 4.678365 0 0 0
102 34 2 -0.35 14.907046 30.626203 5.632511 0 0 0
103 35 1 0.7 8.583572 21.679001 8.940518 0 0 0
104 35 2 -0.35 9.728277 21.500158 8.883359 0 0 0
105 35 2 -0.35 7.438868 21.857843 8.997677 0 0 0
106 36 1 0.7 20.02725 4.430102 26.369613 0 0 0
107 36 2 -0.35 21.076251 4.395181 26.863554 0 0 0
108 36 2 -0.35 18.978249 4.465023 25.875672 0 0 0
109 37 1 0.7 24.597233 2.935232 5.544134 0 0 0
110 37 2 -0.35 25.256485 3.870562 5.734252 0 0 0
111 37 2 -0.35 23.937981 1.999902 5.354016 0 0 0
112 38 1 0.7 18.084239 25.798515 15.710145 0 0 0
113 38 2 -0.35 18.144299 26.956937 15.703088 0 0 0
114 38 2 -0.35 18.024178 24.640092 15.717203 0 0 0
115 39 1 0.7 16.218994 28.72559 7.03766 0 0 0
116 39 2 -0.35 17.132551 28.968501 7.709976 0 0 0
117 39 2 -0.35 15.305437 28.482678 6.365345 0 0 0
118 40 1 0.7 30.779175 14.902383 15.696016 0 0 0
119 40 2 -0.35 29.64107 14.949183 15.915393 0 0 0
120 40 2 -0.35 31.91728 14.855584 15.476638 0 0 0
121 41 1 0.7 4.927536 29.296349 13.893219 0 0 0
122 41 2 -0.35 5.314437 30.374073 13.707696 0 0 0
123 41 2 -0.35 4.540635 28.218625 14.078741 0 0 0
124 42 1 0.7 21.575773 13.74597 29.19101 0 0 0
125 42 2 -0.35 22.075991 14.612964 29.777274 0 0 0
126 42 2 -0.35 21.075555 12.878977 28.604747 0 0 0
127 43 1 0.7 24.128581 9.728472 13.506956 0 0 0
128 43 2 -0.35 23.290824 9.329842 14.203273 0 0 0
129 43 2 -0.35 24.966338 10.127102 12.810639 0 0 0
130 44 1 0.7 13.594351 17.589523 7.698617 0 0 0
131 44 2 -0.35 14.029747 18.223283 6.830067 0 0 0
132 44 2 -0.35 13.158955 16.955764 8.567168 0 0 0
133 45 1 0.7 19.160129 13.763642 12.203947 0 0 0
134 45 2 -0.35 19.556691 13.233321 13.156364 0 0 0
135 45 2 -0.35 18.763567 14.293963 11.25153 0 0 0
136 46 1 0.7 26.738784 11.974787 7.802336 0 0 0
137 46 2 -0.35 26.142208 12.894588 8.181364 0 0 0
138 46 2 -0.35 27.335359 11.054985 7.423307 0 0 0
139 47 1 0.7 13.792905 25.590644 9.648417 0 0 0
140 47 2 -0.35 13.230658 25.645413 10.66157 0 0 0
141 47 2 -0.35 14.355152 25.535875 8.635264 0 0 0
142 48 1 0.7 2.006822 6.58752 11.283962 0 0 0
143 48 2 -0.35 2.01378 7.712608 11.001598 0 0 0
144 48 2 -0.35 1.999864 5.462432 11.566325 0 0 0
145 49 1 0.7 16.998551 12.585261 18.17886 0 0 0
146 49 2 -0.35 17.395574 11.581172 18.602862 0 0 0
147 49 2 -0.35 16.601527 13.58935 17.754858 0 0 0
148 50 1 0.7 10.072673 10.730139 7.130741 0 0 0
149 50 2 -0.35 11.102874 11.261015 7.180322 0 0 0
150 50 2 -0.35 9.042473 10.199263 7.081159 0 0 0
151 51 1 0.7 2.585375 14.301519 8.983393 0 0 0
152 51 2 -0.35 3.16979 13.375171 9.365413 0 0 0
153 51 2 -0.35 2.000961 15.227866 8.601373 0 0 0
154 52 1 0.7 6.975474 26.771192 19.781692 0 0 0
155 52 2 -0.35 6.082469 26.430729 20.439133 0 0 0
156 52 2 -0.35 7.868479 27.111654 19.124252 0 0 0
157 53 1 0.7 15.454952 6.948319 19.297122 0 0 0
158 53 2 -0.35 16.18494 6.363329 19.983055 0 0 0
159 53 2 -0.35 14.724964 7.533308 18.611188 0 0 0
160 54 1 0.7 6.950938 17.182128 12.31468 0 0 0
161 54 2 -0.35 5.883416 17.591593 12.118885 0 0 0
162 54 2 -0.35 8.018459 16.772662 12.510474 0 0 0
163 55 1 0.7 13.31789 26.525654 19.576688 0 0 0
164 55 2 -0.35 14.270176 27.188023 19.572456 0 0 0
165 55 2 -0.35 12.365603 25.863285 19.58092 0 0 0
166 56 1 0.7 31.248309 31.184673 10.099954 0 0 0
167 56 2 -0.35 30.495215 30.367797 10.433366 0 0 0
168 56 2 -0.35 32.001402 32.001549 9.766542 0 0 0
169 57 1 0.7 27.051568 29.760747 7.581703 0 0 0
170 57 2 -0.35 25.911557 29.971829 7.619363 0 0 0
171 57 2 -0.35 28.191579 29.549664 7.544042 0 0 0
172 58 1 0.7 25.189046 20.136752 19.766555 0 0 0
173 58 2 -0.35 25.645022 19.423458 20.559585 0 0 0
174 58 2 -0.35 24.733071 20.850047 18.973525 0 0 0
175 59 1 0.7 20.3627 3.182401 29.016249 0 0 0
176 59 2 -0.35 21.340112 3.601622 29.479412 0 0 0
177 59 2 -0.35 19.385288 2.76318 28.553087 0 0 0
178 60 1 0.7 25.359939 14.467043 11.032319 0 0 0
179 60 2 -0.35 25.742402 13.483455 11.513855 0 0 0
180 60 2 -0.35 24.977475 15.45063 10.550782 0 0 0
181 61 1 0.7 27.301526 16.767998 20.460948 0 0 0
182 61 2 -0.35 26.220584 16.743126 20.88112 0 0 0
183 61 2 -0.35 28.382469 16.792871 20.040776 0 0 0
184 62 1 0.7 24.3491 9.292627 18.243201 0 0 0
185 62 2 -0.35 24.597505 8.45991 17.474775 0 0 0
186 62 2 -0.35 24.100695 10.125343 19.011627 0 0 0
187 63 1 0.7 26.779197 2.459196 2.638057 0 0 0
188 63 2 -0.35 27.841647 2.906884 2.51009 0 0 0
189 63 2 -0.35 25.716747 2.011508 2.766025 0 0 0
190 64 1 0.7 26.266727 7.250149 21.942319 0 0 0
191 64 2 -0.35 27.179508 7.188459 21.22914 0 0 0
192 64 2 -0.35 25.353945 7.311838 22.655498 0 0 0
193 65 1 0.7 21.058885 10.078493 15.305934 0 0 0
194 65 2 -0.35 21.105046 9.919647 14.157789 0 0 0
195 65 2 -0.35 21.012725 10.237339 16.454079 0 0 0
196 66 1 0.7 5.487556 27.710806 5.234985 0 0 0
197 66 2 -0.35 4.824073 27.234329 4.411359 0 0 0
198 66 2 -0.35 6.151038 28.187283 6.058611 0 0 0
199 67 1 0.7 26.800979 11.617405 9.97926 0 0 0
200 67 2 -0.35 27.872534 11.968363 9.706864 0 0 0
201 67 2 -0.35 25.729425 11.266446 10.251656 0 0 0
202 68 1 0.7 31.930966 10.90692 23.941892 0 0 0
203 68 2 -0.35 31.861794 11.672458 23.07312 0 0 0
204 68 2 -0.35 32.000138 10.141381 24.810665 0 0 0
205 69 1 0.7 8.620562 31.466624 4.018456 0 0 0
206 69 2 -0.35 9.747412 31.73201 3.945115 0 0 0
207 69 2 -0.35 7.493711 31.201238 4.091797 0 0 0
208 70 1 0.7 30.489885 15.122695 24.037708 0 0 0
209 70 2 -0.35 31.02601 14.100003 24.148477 0 0 0
210 70 2 -0.35 29.95376 16.145388 23.926938 0 0 0
211 71 1 0.7 18.371543 24.286355 5.864808 0 0 0
212 71 2 -0.35 18.621017 25.318065 6.332715 0 0 0
213 71 2 -0.35 18.122069 23.254645 5.396901 0 0 0
214 72 1 0.7 19.126313 6.327314 17.288187 0 0 0
215 72 2 -0.35 18.772523 7.338939 17.732086 0 0 0
216 72 2 -0.35 19.480104 5.315689 16.844288 0 0 0
217 73 1 0.7 12.740091 27.57749 7.852149 0 0 0
218 73 2 -0.35 12.336927 27.567829 6.764507 0 0 0
219 73 2 -0.35 13.143255 27.58715 8.939791 0 0 0
220 74 1 0.7 5.517695 15.343773 3.385087 0 0 0
221 74 2 -0.35 4.473958 14.898473 3.625757 0 0 0
222 74 2 -0.35 6.561431 15.789073 3.144416 0 0 0
223 75 1 0.7 9.064538 17.959137 20.079214 0 0 0
224 75 2 -0.35 10.145138 18.229867 20.402647 0 0 0
225 75 2 -0.35 7.983938 17.688408 19.755782 0 0 0
226 76 1 0.7 12.507323 9.756807 9.12136 0 0 0
227 76 2 -0.35 11.96543 8.768448 9.395401 0 0 0
228 76 2 -0.35 13.049215 10.745167 8.847319 0 0 0
229 77 1 0.7 14.344985 5.541654 31.28626 0 0 0
230 77 2 -0.35 15.137846 6.030331 31.977756 0 0 0
231 77 2 -0.35 13.552124 5.052977 30.594765 0 0 0
232 78 1 0.7 13.092538 7.489052 22.41163 0 0 0
233 78 2 -0.35 13.272054 6.347588 22.309476 0 0 0
234 78 2 -0.35 12.913022 8.630515 22.513785 0 0 0
235 79 1 0.7 11.16877 8.452567 6.331299 0 0 0
236 79 2 -0.35 10.09538 8.026472 6.440278 0 0 0
237 79 2 -0.35 12.242161 8.878662 6.22232 0 0 0
238 80 1 0.7 13.763667 25.489207 12.879812 0 0 0
239 80 2 -0.35 14.47753 26.378146 13.09379 0 0 0
240 80 2 -0.35 13.049804 24.600267 12.665835 0 0 0
241 81 1 0.7 11.840318 29.586447 4.435103 0 0 0
242 81 2 -0.35 11.066264 29.927325 3.641225 0 0 0
243 81 2 -0.35 12.614372 29.245568 5.228981 0 0 0
244 82 1 0.7 10.295772 14.002998 22.260354 0 0 0
245 82 2 -0.35 10.455561 15.146612 22.370875 0 0 0
246 82 2 -0.35 10.135982 12.859384 22.149832 0 0 0
247 83 1 0.7 28.855621 6.11447 23.441701 0 0 0
248 83 2 -0.35 29.313686 6.553869 24.412631 0 0 0
249 83 2 -0.35 28.397557 5.67507 22.470771 0 0 0
250 84 1 0.7 4.529622 14.495515 26.656241 0 0 0
251 84 2 -0.35 3.887808 14.244825 25.723059 0 0 0
252 84 2 -0.35 5.171436 14.746206 27.589424 0 0 0
253 85 1 0.7 21.863432 20.853374 17.295086 0 0 0
254 85 2 -0.35 21.055932 20.188267 16.793912 0 0 0
255 85 2 -0.35 22.670933 21.518481 17.79626 0 0 0
256 86 1 0.7 3.181932 28.021163 15.877417 0 0 0
257 86 2 -0.35 2.55218 28.993525 15.936782 0 0 0
258 86 2 -0.35 3.811684 27.048801 15.818051 0 0 0
259 87 1 0.7 29.962989 20.473566 16.275428 0 0 0
260 87 2 -0.35 28.997358 19.877842 16.034036 0 0 0
261 87 2 -0.35 30.928619 21.069291 16.51682 0 0 0
262 88 1 0.7 16.260767 16.003712 23.438801 0 0 0
263 88 2 -0.35 16.912424 15.106435 23.77915 0 0 0
264 88 2 -0.35 15.609109 16.900989 23.098452 0 0 0
265 89 1 0.7 11.238646 19.899208 10.131409 0 0 0
266 89 2 -0.35 11.033726 18.758881 10.074288 0 0 0
267 89 2 -0.35 11.443567 21.039534 10.18853 0 0 0
268 90 1 0.7 8.603738 20.229647 18.258921 0 0 0
269 90 2 -0.35 7.738248 19.71755 18.837093 0 0 0
270 90 2 -0.35 9.469228 20.741745 17.680748 0 0 0
271 91 1 0.7 22.625738 11.120224 8.504172 0 0 0
272 91 2 -0.35 22.102026 12.02411 9.00847 0 0 0
273 91 2 -0.35 23.149449 10.216338 7.999875 0 0 0
274 92 1 0.7 12.015988 5.233784 20.794471 0 0 0
275 92 2 -0.35 11.590419 6.30765 20.90078 0 0 0
276 92 2 -0.35 12.441557 4.159917 20.688162 0 0 0
277 93 1 0.7 30.459039 9.172986 17.499209 0 0 0
278 93 2 -0.35 29.553261 8.99424 18.201502 0 0 0
279 93 2 -0.35 31.364817 9.351732 16.796916 0 0 0
280 94 1 0.7 5.608455 31.351048 29.884091 0 0 0
281 94 2 -0.35 6.561132 30.862126 29.43804 0 0 0
282 94 2 -0.35 4.655777 31.839971 30.330141 0 0 0
283 95 1 0.7 22.43834 19.620422 7.67003 0 0 0
284 95 2 -0.35 22.264998 19.866502 6.549763 0 0 0
285 95 2 -0.35 22.611682 19.374341 8.790296 0 0 0
286 96 1 0.7 26.203379 17.344868 10.428149 0 0 0
287 96 2 -0.35 27.234262 16.829384 10.559126 0 0 0
288 96 2 -0.35 25.172496 17.860353 10.297173 0 0 0
289 97 1 0.7 19.44582 3.184426 15.308881 0 0 0
290 97 2 -0.35 20.416005 3.764506 15.569356 0 0 0
291 97 2 -0.35 18.475634 2.604346 15.048407 0 0 0
292 98 1 0.7 2.691849 27.39073 26.543425 0 0 0
293 98 2 -0.35 2.00225 26.807795 27.2716 0 0 0
294 98 2 -0.35 3.381449 27.973665 25.81525 0 0 0
295 99 1 0.7 28.347964 7.377032 3.744173 0 0 0
296 99 2 -0.35 28.060478 6.976214 4.794076 0 0 0
297 99 2 -0.35 28.63545 7.77785 2.69427 0 0 0
298 100 1 0.7 13.925247 8.573229 4.06876 0 0 0
299 100 2 -0.35 14.397482 9.441414 3.46143 0 0 0
300 100 2 -0.35 13.453011 7.705045 4.676089 0 0 0
301 101 1 0.7 14.850114 6.118405 3.135166 0 0 0
302 101 2 -0.35 15.237686 6.218952 4.223871 0 0 0
303 101 2 -0.35 14.462542 6.017858 2.046461 0 0 0
304 102 1 0.7 28.102079 24.355893 18.664747 0 0 0
305 102 2 -0.35 27.505361 24.97655 19.442122 0 0 0
306 102 2 -0.35 28.698798 23.735236 17.887372 0 0 0
307 103 1 0.7 7.832598 25.52474 27.443647 0 0 0
308 103 2 -0.35 8.840751 25.156876 27.0033 0 0 0
309 103 2 -0.35 6.824446 25.892603 27.883993 0 0 0
310 104 1 0.7 6.186812 16.945549 22.138309 0 0 0
311 104 2 -0.35 5.291554 17.363371 21.530412 0 0 0
312 104 2 -0.35 7.082069 16.527726 22.746206 0 0 0
313 105 1 0.7 25.859459 14.765485 31.084837 0 0 0
314 105 2 -0.35 26.729944 14.242489 30.524185 0 0 0
315 105 2 -0.35 24.988974 15.288482 31.645489 0 0 0
316 106 1 0.7 20.924979 30.932519 19.152831 0 0 0
317 106 2 -0.35 20.600867 31.444697 18.163778 0 0 0
318 106 2 -0.35 21.249091 30.420341 20.141884 0 0 0
319 107 1 0.7 24.045276 17.651772 30.119553 0 0 0
320 107 2 -0.35 23.658667 17.427741 29.049065 0 0 0
321 107 2 -0.35 24.431884 17.875804 31.19004 0 0 0
322 108 1 0.7 26.254779 9.335829 30.375896 0 0 0
323 108 2 -0.35 26.511272 10.330178 29.836378 0 0 0
324 108 2 -0.35 25.998287 8.341479 30.915415 0 0 0
325 109 1 0.7 16.485065 10.727572 7.634473 0 0 0
326 109 2 -0.35 15.388032 11.099767 7.69438 0 0 0
327 109 2 -0.35 17.582099 10.355377 7.574565 0 0 0
328 110 1 0.7 27.371559 23.620538 26.854468 0 0 0
329 110 2 -0.35 27.126904 24.735025 26.645511 0 0 0
330 110 2 -0.35 27.616214 22.506052 27.063426 0 0 0
331 111 1 0.7 12.668978 21.353803 20.225953 0 0 0
332 111 2 -0.35 13.359519 21.04076 19.348024 0 0 0
333 111 2 -0.35 11.978438 21.666845 21.103882 0 0 0
334 112 1 0.7 30.875934 19.963335 5.987864 0 0 0
335 112 2 -0.35 29.829157 19.464894 6.025471 0 0 0
336 112 2 -0.35 31.922711 20.461776 5.950256 0 0 0
337 113 1 0.7 13.272319 9.266517 16.533297 0 0 0
338 113 2 -0.35 14.346461 9.068437 16.923916 0 0 0
339 113 2 -0.35 12.198177 9.464597 16.142678 0 0 0
340 114 1 0.7 11.230913 24.733394 17.972283 0 0 0
341 114 2 -0.35 11.987603 23.87757 18.173742 0 0 0
342 114 2 -0.35 10.474224 25.589218 17.770825 0 0 0
343 115 1 0.7 3.846799 15.509471 29.332516 0 0 0
344 115 2 -0.35 3.069708 14.663574 29.494347 0 0 0
345 115 2 -0.35 4.62389 16.355367 29.170685 0 0 0
346 116 1 0.7 25.445819 24.455412 4.567167 0 0 0
347 116 2 -0.35 26.571061 24.690939 4.412384 0 0 0
348 116 2 -0.35 24.320577 24.219885 4.72195 0 0 0
349 117 1 0.7 10.27684 20.942237 30.307193 0 0 0
350 117 2 -0.35 10.77279 20.477338 29.367245 0 0 0
351 117 2 -0.35 9.78089 21.407137 31.247141 0 0 0
352 118 1 0.7 27.742196 5.880816 25.978284 0 0 0
353 118 2 -0.35 28.212539 6.763614 26.565691 0 0 0
354 118 2 -0.35 27.271852 4.998019 25.390878 0 0 0
355 119 1 0.7 19.759721 26.265036 10.005939 0 0 0
356 119 2 -0.35 18.998501 25.43335 10.278783 0 0 0
357 119 2 -0.35 20.520941 27.096721 9.733096 0 0 0
358 120 1 0.7 2.834654 9.400964 18.77101 0 0 0
359 120 2 -0.35 2.082405 10.248524 18.523295 0 0 0
360 120 2 -0.35 3.586904 8.553404 19.018725 0 0 0
361 121 1 0.7 12.871639 25.819184 27.303818 0 0 0
362 121 2 -0.35 12.540905 26.711297 27.967405 0 0 0
363 121 2 -0.35 13.202372 24.92707 26.64023 0 0 0
364 122 1 0.7 15.361473 8.350023 29.105503 0 0 0
365 122 2 -0.35 16.425199 7.923286 29.284343 0 0 0
366 122 2 -0.35 14.297748 8.77676 28.926663 0 0 0
367 123 1 0.7 10.516474 29.580192 24.181812 0 0 0
368 123 2 -0.35 9.413715 29.818807 23.912395 0 0 0
369 123 2 -0.35 11.619233 29.341577 24.45123 0 0 0
370 124 1 0.7 18.140672 17.000402 24.18112 0 0 0
371 124 2 -0.35 19.0052 16.47196 23.616371 0 0 0
372 124 2 -0.35 17.276144 17.528843 24.745868 0 0 0
373 125 1 0.7 17.354841 21.582821 14.870816 0 0 0
374 125 2 -0.35 16.440995 21.831764 15.540527 0 0 0
375 125 2 -0.35 18.268686 21.333877 14.201104 0 0 0
376 126 1 0.7 9.855186 7.488176 15.121614 0 0 0
377 126 2 -0.35 10.924969 7.912319 14.975786 0 0 0
378 126 2 -0.35 8.785402 7.064034 15.267443 0 0 0
379 127 1 0.7 9.05452 10.087753 22.360721 0 0 0
380 127 2 -0.35 10.177825 10.250514 22.121355 0 0 0
381 127 2 -0.35 7.931216 9.924992 22.600086 0 0 0
382 128 1 0.7 11.486276 15.957051 25.528883 0 0 0
383 128 2 -0.35 10.597402 16.701463 25.492097 0 0 0
384 128 2 -0.35 12.37515 15.212639 25.56567 0 0 0
385 129 1 0.7 15.893301 29.540249 10.937163 0 0 0
386 129 2 -0.35 15.447047 30.191585 10.087328 0 0 0
387 129 2 -0.35 16.339555 28.888913 11.786997 0 0 0
388 130 1 0.7 21.986482 14.828036 10.237487 0 0 0
389 130 2 -0.35 22.495523 15.361729 11.132835 0 0 0
390 130 2 -0.35 21.477441 14.294343 9.342139 0 0 0
391 131 1 0.7 14.628195 6.103391 10.497614 0 0 0
392 131 2 -0.35 15.477084 6.890087 10.419534 0 0 0
393 131 2 -0.35 13.779306 5.316694 10.575694 0 0 0
394 132 1 0.7 30.202474 12.548072 3.875358 0 0 0
395 132 2 -0.35 29.132768 12.49668 4.321104 0 0 0
396 132 2 -0.35 31.272179 12.599465 3.429612 0 0 0
397 133 1 0.7 19.205849 23.15541 21.678186 0 0 0
398 133 2 -0.35 19.144892 22.40854 22.563663 0 0 0
399 133 2 -0.35 19.266806 23.90228 20.792709 0 0 0
400 134 1 0.7 28.801258 9.658853 15.802214 0 0 0
401 134 2 -0.35 28.567216 10.687038 16.285599 0 0 0
402 134 2 -0.35 29.0353 8.630669 15.31883 0 0 0
403 135 1 0.7 2.563663 12.128221 13.047449 0 0 0
404 135 2 -0.35 3.124112 13.008801 13.553487 0 0 0
405 135 2 -0.35 2.003213 11.247641 12.541411 0 0 0
406 136 1 0.7 28.482723 11.06439 23.900013 0 0 0
407 136 2 -0.35 27.40364 10.765794 24.203362 0 0 0
408 136 2 -0.35 29.561806 11.362985 23.596665 0 0 0
409 137 1 0.7 13.410928 26.123144 22.014094 0 0 0
410 137 2 -0.35 13.867518 25.080424 22.237392 0 0 0
411 137 2 -0.35 12.954339 27.165863 21.790795 0 0 0
412 138 1 0.7 19.717387 25.789223 27.737315 0 0 0
413 138 2 -0.35 20.547966 26.596742 27.797746 0 0 0
414 138 2 -0.35 18.886809 24.981703 27.676884 0 0 0
415 139 1 0.7 20.023199 2.786147 2.995003 0 0 0
416 139 2 -0.35 20.597252 3.329287 2.14585 0 0 0
417 139 2 -0.35 19.449146 2.243007 3.844156 0 0 0
418 140 1 0.7 12.61388 30.694349 18.13849 0 0 0
419 140 2 -0.35 11.517043 30.322363 18.203114 0 0 0
420 140 2 -0.35 13.710716 31.066336 18.073865 0 0 0
421 141 1 0.7 9.301677 13.094977 8.020669 0 0 0
422 141 2 -0.35 8.23328 13.169277 7.575015 0 0 0
423 141 2 -0.35 10.370074 13.020676 8.466323 0 0 0
424 142 1 0.7 8.020492 18.893868 15.811187 0 0 0
425 142 2 -0.35 7.044696 18.272787 15.72355 0 0 0
426 142 2 -0.35 8.996289 19.514948 15.898823 0 0 0
427 143 1 0.7 11.134425 12.733728 16.572224 0 0 0
428 143 2 -0.35 12.245935 13.015269 16.396497 0 0 0
429 143 2 -0.35 10.022915 12.452186 16.747951 0 0 0
430 144 1 0.7 28.965145 16.282494 5.545378 0 0 0
431 144 2 -0.35 29.55932 17.278555 5.565809 0 0 0
432 144 2 -0.35 28.370969 15.286432 5.524946 0 0 0
433 145 1 0.7 10.775049 14.767038 15.148425 0 0 0
434 145 2 -0.35 11.341485 15.68811 15.568397 0 0 0
435 145 2 -0.35 10.208614 13.845965 14.728453 0 0 0
436 146 1 0.7 15.729428 9.588353 23.410126 0 0 0
437 146 2 -0.35 15.075273 10.379587 23.950154 0 0 0
438 146 2 -0.35 16.383582 8.797118 22.870098 0 0 0
439 147 1 0.7 10.529272 5.024522 31.824938 0 0 0
440 147 2 -0.35 9.659676 5.772115 31.650273 0 0 0
441 147 2 -0.35 11.398868 4.276929 31.999603 0 0 0
442 148 1 0.7 4.464565 12.057134 16.252458 0 0 0
443 148 2 -0.35 3.351127 12.380546 16.216953 0 0 0
444 148 2 -0.35 5.578003 11.733721 16.287963 0 0 0
445 149 1 0.7 31.068821 3.069232 11.536588 0 0 0
446 149 2 -0.35 31.916933 2.29414 11.376779 0 0 0
447 149 2 -0.35 30.220709 3.844323 11.696398 0 0 0
448 150 1 0.7 20.168244 22.373753 3.133702 0 0 0
449 150 2 -0.35 20.223132 22.143381 1.998133 0 0 0
450 150 2 -0.35 20.113355 22.604124 4.26927 0 0 0
451 151 1 0.7 22.49683 28.767957 24.693963 0 0 0
452 151 2 -0.35 23.505208 29.27655 24.95874 0 0 0
453 151 2 -0.35 21.488452 28.259364 24.429185 0 0 0
454 152 1 0.7 3.749487 14.067222 11.396213 0 0 0
455 152 2 -0.35 4.633185 13.31776 11.450846 0 0 0
456 152 2 -0.35 2.865789 14.816683 11.341579 0 0 0
457 153 1 0.7 6.858962 5.738286 28.009495 0 0 0
458 153 2 -0.35 6.275693 4.909231 28.573468 0 0 0
459 153 2 -0.35 7.44223 6.567342 27.445523 0 0 0
460 154 1 0.7 15.679028 22.931547 24.250729 0 0 0
461 154 2 -0.35 14.538531 22.719895 24.259007 0 0 0
462 154 2 -0.35 16.819526 23.143199 24.24245 0 0 0
463 155 1 0.7 19.960877 10.972847 28.616276 0 0 0
464 155 2 -0.35 20.993507 10.448502 28.550422 0 0 0
465 155 2 -0.35 18.928247 11.497192 28.682131 0 0 0
466 156 1 0.7 19.396376 27.538305 21.13845 0 0 0
467 156 2 -0.35 19.581074 28.321904 21.97359 0 0 0
468 156 2 -0.35 19.211678 26.754706 20.303309 0 0 0
469 157 1 0.7 11.655619 28.076765 19.56109 0 0 0
470 157 2 -0.35 11.248969 27.941359 20.639005 0 0 0
471 157 2 -0.35 12.062269 28.21217 18.483175 0 0 0
472 158 1 0.7 5.646571 15.288881 13.054236 0 0 0
473 158 2 -0.35 4.569198 15.661743 13.268339 0 0 0
474 158 2 -0.35 6.723944 14.916018 12.840133 0 0 0
475 159 1 0.7 20.95351 24.510971 25.81625 0 0 0
476 159 2 -0.35 19.874159 24.098665 25.919225 0 0 0
477 159 2 -0.35 22.032862 24.923278 25.713275 0 0 0
478 160 1 0.7 31.067216 23.482 19.370848 0 0 0
479 160 2 -0.35 31.810106 22.60056 19.500384 0 0 0
480 160 2 -0.35 30.324326 24.363439 19.241313 0 0 0
481 161 1 0.7 20.330729 29.217439 8.685973 0 0 0
482 161 2 -0.35 21.142352 29.733391 9.334557 0 0 0
483 161 2 -0.35 19.519105 28.701487 8.037389 0 0 0
484 162 1 0.7 11.869726 11.196081 19.152072 0 0 0
485 162 2 -0.35 12.101687 10.216195 18.576209 0 0 0
486 162 2 -0.35 11.637765 12.175967 19.727934 0 0 0
487 163 1 0.7 8.808048 11.469246 27.583947 0 0 0
488 163 2 -0.35 7.769107 11.212605 28.031537 0 0 0
489 163 2 -0.35 9.846989 11.725887 27.136357 0 0 0
490 164 1 0.7 17.546012 14.500968 4.576425 0 0 0
491 164 2 -0.35 17.820984 13.379941 4.461145 0 0 0
492 164 2 -0.35 17.271041 15.621995 4.691705 0 0 0
493 165 1 0.7 5.854777 25.311405 18.369165 0 0 0
494 165 2 -0.35 5.803155 26.372074 17.902349 0 0 0
495 165 2 -0.35 5.9064 24.250736 18.835981 0 0 0
496 166 1 0.7 21.860552 24.294616 31.115505 0 0 0
497 166 2 -0.35 22.208912 23.348835 31.689738 0 0 0
498 166 2 -0.35 21.512193 25.240397 30.541271 0 0 0
499 167 1 0.7 4.608921 27.910964 19.415262 0 0 0
500 167 2 -0.35 5.390516 28.619332 18.93264 0 0 0
501 167 2 -0.35 3.827326 27.202596 19.897885 0 0 0
502 168 1 0.7 19.05711 13.34284 18.308591 0 0 0
503 168 2 -0.35 18.605626 13.955786 19.183839 0 0 0
504 168 2 -0.35 19.508595 12.729893 17.433343 0 0 0
505 169 1 0.7 9.741565 4.869964 6.992269 0 0 0
506 169 2 -0.35 9.1742 5.48337 7.7969 0 0 0
507 169 2 -0.35 10.30893 4.256559 6.187638 0 0 0
508 170 1 0.7 22.013173 22.434661 13.086368 0 0 0
509 170 2 -0.35 20.885659 22.343812 12.829352 0 0 0
510 170 2 -0.35 23.140688 22.525509 13.343385 0 0 0
511 171 1 0.7 12.376863 2.01524 20.848873 0 0 0
512 171 2 -0.35 12.248375 2.008793 22.001717 0 0 0
513 171 2 -0.35 12.50535 2.021686 19.696029 0 0 0
514 172 1 0.7 11.924939 13.54614 24.135389 0 0 0
515 172 2 -0.35 12.41028 13.963946 23.168186 0 0 0
516 172 2 -0.35 11.439597 13.128334 25.102593 0 0 0
517 173 1 0.7 24.730919 6.129984 16.400727 0 0 0
518 173 2 -0.35 25.672332 5.959361 15.744807 0 0 0
519 173 2 -0.35 23.789507 6.300607 17.056646 0 0 0
520 174 1 0.7 7.738383 13.953076 27.241494 0 0 0
521 174 2 -0.35 8.342733 14.019276 28.22941 0 0 0
522 174 2 -0.35 7.134033 13.886876 26.253578 0 0 0
523 175 1 0.7 9.006896 11.285869 30.53607 0 0 0
524 175 2 -0.35 8.1141 11.135078 31.261176 0 0 0
525 175 2 -0.35 9.899691 11.436659 29.810964 0 0 0
526 176 1 0.7 24.688565 30.266661 3.556797 0 0 0
527 176 2 -0.35 23.718519 29.858155 4.044377 0 0 0
528 176 2 -0.35 25.65861 30.675168 3.069218 0 0 0
529 177 1 0.7 28.140143 9.935752 27.321511 0 0 0
530 177 2 -0.35 27.61005 10.951076 27.137884 0 0 0
531 177 2 -0.35 28.670235 8.920429 27.505139 0 0 0
532 178 1 0.7 23.632575 18.908717 23.461708 0 0 0
533 178 2 -0.35 23.573369 17.750272 23.471682 0 0 0
534 178 2 -0.35 23.691781 20.067162 23.451733 0 0 0
535 179 1 0.7 13.751541 2.822009 13.703395 0 0 0
536 179 2 -0.35 13.249057 2.693517 14.740988 0 0 0
537 179 2 -0.35 14.254024 2.950501 12.665802 0 0 0
538 180 1 0.7 6.259807 9.081204 14.971647 0 0 0
539 180 2 -0.35 6.129645 10.175265 14.608758 0 0 0
540 180 2 -0.35 6.38997 7.987143 15.334537 0 0 0
541 181 1 0.7 26.57035 5.336643 7.046414 0 0 0
542 181 2 -0.35 25.485766 5.74586 7.003737 0 0 0
543 181 2 -0.35 27.654933 4.927426 7.08909 0 0 0
544 182 1 0.7 19.532744 15.373261 15.619599 0 0 0
545 182 2 -0.35 18.413637 15.107002 15.470252 0 0 0
546 182 2 -0.35 20.651852 15.63952 15.768946 0 0 0
547 183 1 0.7 13.421755 7.111946 14.61685 0 0 0
548 183 2 -0.35 14.338968 7.755558 14.916989 0 0 0
549 183 2 -0.35 12.504542 6.468333 14.316711 0 0 0
550 184 1 0.7 20.538039 12.838332 15.376666 0 0 0
551 184 2 -0.35 21.412155 13.544644 15.664143 0 0 0
552 184 2 -0.35 19.663922 12.13202 15.08919 0 0 0
553 185 1 0.7 7.467174 15.519228 10.296822 0 0 0
554 185 2 -0.35 7.024719 16.58636 10.191646 0 0 0
555 185 2 -0.35 7.909628 14.452095 10.401997 0 0 0
556 186 1 0.7 10.12536 7.560868 3.745917 0 0 0
557 186 2 -0.35 10.086963 6.40518 3.653663 0 0 0
558 186 2 -0.35 10.163756 8.716556 3.83817 0 0 0
559 187 1 0.7 23.637929 8.933662 5.381328 0 0 0
560 187 2 -0.35 24.797577 8.954236 5.401135 0 0 0
561 187 2 -0.35 22.47828 8.913089 5.361521 0 0 0
562 188 1 0.7 14.021523 18.648053 29.747615 0 0 0
563 188 2 -0.35 14.560767 19.143562 30.647218 0 0 0
564 188 2 -0.35 13.482278 18.152545 28.848011 0 0 0
565 189 1 0.7 19.200804 7.257584 24.033672 0 0 0
566 189 2 -0.35 18.291719 6.78666 24.579012 0 0 0
567 189 2 -0.35 20.109889 7.728508 23.488332 0 0 0
568 190 1 0.7 23.646527 13.524514 2.343899 0 0 0
569 190 2 -0.35 24.798279 13.395903 2.394165 0 0 0
570 190 2 -0.35 22.494775 13.653124 2.293633 0 0 0
571 191 1 0.7 26.847113 20.24536 15.687573 0 0 0
572 191 2 -0.35 26.761184 19.611181 16.655061 0 0 0
573 191 2 -0.35 26.933042 20.87954 14.720085 0 0 0
574 192 1 0.7 3.144032 5.859888 9.539553 0 0 0
575 192 2 -0.35 2.347704 5.565706 8.749034 0 0 0
576 192 2 -0.35 3.940359 6.15407 10.330071 0 0 0
577 193 1 0.7 2.709531 11.729573 26.164929 0 0 0
578 193 2 -0.35 2.540863 10.904426 25.367255 0 0 0
579 193 2 -0.35 2.878199 12.55472 26.962604 0 0 0
580 194 1 0.7 28.444098 20.906349 4.064224 0 0 0
581 194 2 -0.35 29.072584 19.942472 3.91744 0 0 0
582 194 2 -0.35 27.815612 21.870227 4.211008 0 0 0
583 195 1 0.7 19.383662 9.104124 8.320062 0 0 0
584 195 2 -0.35 19.892881 10.062502 8.729707 0 0 0
585 195 2 -0.35 18.874443 8.145747 7.910417 0 0 0
586 196 1 0.7 24.558905 6.878757 20.590196 0 0 0
587 196 2 -0.35 24.68114 5.729193 20.685916 0 0 0
588 196 2 -0.35 24.436669 8.02832 20.494475 0 0 0
589 197 1 0.7 23.298336 25.745279 29.131722 0 0 0
590 197 2 -0.35 22.892718 26.510694 28.36022 0 0 0
591 197 2 -0.35 23.703953 24.979865 29.903224 0 0 0
592 198 1 0.7 20.116772 5.161093 19.094579 0 0 0
593 198 2 -0.35 19.802814 6.200231 19.503507 0 0 0
594 198 2 -0.35 20.430729 4.121955 18.68565 0 0 0
595 199 1 0.7 5.979399 14.978069 19.938577 0 0 0
596 199 2 -0.35 6.17312 13.846743 20.106423 0 0 0
597 199 2 -0.35 5.785679 16.109396 19.77073 0 0 0
598 200 1 0.7 16.124811 8.902225 6.150391 0 0 0
599 200 2 -0.35 16.810372 8.312812 6.877163 0 0 0
600 200 2 -0.35 15.43925 9.491639 5.423618 0 0 0