LAMMPS data file for n2/co2

900 atoms
4 atom types
600 bonds
2 bond types

0 36  xlo xhi
0 36  ylo yhi
0 36  zlo zhi

Masses

1 12.0107
2 15.9999
3 28.0134
4 2

Pair Coeffs # lj/cut/coul/long

1 0.0536548 2.8
2 0.15699 3.05
3 0 0
4 0.0715394 3.31

Atoms # full

1 1 1 0.7 14.278852 13.211406 4.802704 0 0 0
2 1 2 -0.35 14.362619 13.98991 3.946834 0 0 0
3 1 2 -0.35 14.195084 12.432902 5.658575 0 0 0
4 2 1 0.7 4.158697 20.519773 19.906902 0 0 0
5 2 2 -0.35 3.917323 20.120051 20.968769 0 0 0
6 2 2 -0.35 4.40007 20.919495 18.845035 0 0 0
7 3 1 0.7 24.140205 31.913103 30.15346 0 0 0
8 3 2 -0.35 23.077593 31.98555 30.613034 0 0 0
9 3 2 -0.35 25.202816 31.840656 29.693885 0 0 0
10 4 1 0.7 30.944126 10.71089 23.281889 0 0 0
11 4 2 -0.35 29.888356 10.969143 23.687174 0 0 0
12 4 2 -0.35 31.999895 10.452637 22.876604 0 0 0
13 5 1 0.7 25.166273 4.945568 5.743409 0 0 0
14 5 2 -0.35 25.468638 6.051484 5.566985 0 0 0
15 5 2 -0.35 24.863907 3.839652 5.919833 0 0 0
16 6 1 0.7 20.268786 15.922644 16.174316 0 0 0
17 6 2 -0.35 21.368156 15.710093 16.477314 0 0 0
18 6 2 -0.35 19.169416 16.135195 15.871317 0 0 0
19 7 1 0.7 25.872234 28.754139 24.606897 0 0 0
20 7 2 -0.35 24.782567 28.72153 24.210459 0 0 0
21 7 2 -0.35 26.961901 28.786748 25.003335 0 0 0
22 8 1 0.7 5.542419 6.087954 2.774029 0 0 0
23 8 2 -0.35 4.804861 5.240183 3.061938 0 0 0
24 8 2 -0.35 6.279978 6.935725 2.48612 0 0 0
25 9 1 0.7 26.978513 23.45335 24.611827 0 0 0
26 9 2 -0.35 26.171086 22.87525 25.211378 0 0 0
27 9 2 -0.35 27.785941 24.03145 24.012276 0 0 0
28 10 1 0.7 28.766658 6.00363 31.69615 0 0 0
29 10 2 -0.35 29.552969 6.812615 31.966072 0 0 0
30 10 2 -0.35 27.980346 5.194646 31.426228 0 0 0
31 11 1 0.7 24.757444 26.0996 31.028589 0 0 0
32 11 2 -0.35 25.149039 25.201839 30.407076 0 0 0
33 11 2 -0.35 24.36585 26.997361 31.650103 0 0 0
34 12 1 0.7 29.229186 27.315153 17.070853 0 0 0
35 12 2 -0.35 28.072541 27.227186 17.065093 0 0 0
36 12 2 -0.35 30.385832 27.403121 17.076612 0 0 0
37 13 1 0.7 4.233223 23.181864 22.144106 0 0 0
38 13 2 -0.35 4.891932 24.096347 22.418739 0 0 0
39 13 2 -0.35 3.574514 22.26738 21.869473 0 0 0
40 14 1 0.7 15.669065 23.566409 20.199841 0 0 0
41 14 2 -0.35 15.601327 23.908946 19.09364 0 0 0
42 14 2 -0.35 15.736804 23.223873 21.306041 0 0 0
43 15 1 0.7 29.717257 23.353963 6.259263 0 0 0
44 15 2 -0.35 30.552685 24.157414 6.305367 0 0 0
45 15 2 -0.35 28.881829 22.550511 6.213159 0 0 0
46 16 1 0.7 30.374293 30.188247 6.470202 0 0 0
47 16 2 -0.35 29.305309 30.576535 6.698468 0 0 0
48 16 2 -0.35 31.443277 29.799958 6.241935 0 0 0
49 17 1 0.7 31.277601 5.184205 27.730323 0 0 0
50 17 2 -0.35 31.69427 5.886843 28.553905 0 0 0
51 17 2 -0.35 30.860932 4.481567 26.906741 0 0 0
52 18 1 0.7 23.884363 24.312942 13.014656 0 0 0
53 18 2 -0.35 23.184588 25.07741 13.535716 0 0 0
54 18 2 -0.35 24.584138 23.548473 12.493597 0 0 0
55 19 1 0.7 18.035841 11.073026 17.024812 0 0 0
56 19 2 -0.35 18.915635 10.927057 17.766603 0 0 0
57 19 2 -0.35 17.156046 11.218994 16.28302 0 0 0
58 20 1 0.7 8.385615 8.758829 27.674301 0 0 0
59 20 2 -0.35 7.482777 8.405941 27.037157 0 0 0
60 20 2 -0.35 9.288453 9.111718 28.311446 0 0 0
61 21 1 0.7 24.462832 27.602548 17.330372 0 0 0
62 21 2 -0.35 25.149164 27.245193 16.46617 0 0 0
63 21 2 -0.35 23.776501 27.959903 18.194575 0 0 0
64 22 1 0.7 30.795139 15.364691 21.676991 0 0 0
65 22 2 -0.35 29.722742 14.975578 21.887125 0 0 0
66 22 2 -0.35 31.867535 15.753805 21.466857 0 0 0
67 23 1 0.7 3.038309 27.590274 29.496122 0 0 0
68 23 2 -0.35 4.076587 27.204624 29.15137 0 0 0
69 23 2 -0.35 2.000031 27.975924 29.840873 0 0 0
70 24 1 0.7 24.840623 9.954417 21.636894 0 0 0
71 24 2 -0.35 25.841311 10.307272 21.168154 0 0 0
72 24 2 -0.35 23.839935 9.601562 22.105635 0 0 0
73 25 1 0.7 10.284018 24.104601 27.244248 0 0 0
74 25 2 -0.35 9.179355 24.429471 27.103609 0 0 0
75 25 2 -0.35 11.388681 23.779732 27.384886 0 0 0
76 26 1 0.7 6.628644 26.406644 13.47191 0 0 0
77 26 2 -0.35 7.583907 27.044553 13.31021 0 0 0
78 26 2 -0.35 5.673382 25.768736 13.633611 0 0 0
79 27 1 0.7 17.614853 2.971414 14.603917 0 0 0
80 27 2 -0.35 18.468187 3.755033 14.545932 0 0 0
81 27 2 -0.35 16.761519 2.187795 14.661902 0 0 0
82 28 1 0.7 27.977419 12.975344 11.525169 0 0 0
83 28 2 -0.35 27.095586 12.227336 11.43322 0 0 0
84 28 2 -0.35 28.859251 13.723353 11.617119 0 0 0
85 29 1 0.7 29.188467 19.341891 27.822212 0 0 0
86 29 2 -0.35 28.511454 18.399974 27.828925 0 0 0
87 29 2 -0.35 29.86548 20.283808 27.815499 0 0 0
88 30 1 0.7 13.830036 6.669216 20.544862 0 0 0
89 30 2 -0.35 14.760334 6.785853 21.227901 0 0 0
90 30 2 -0.35 12.899739 6.552578 19.861823 0 0 0
91 31 1 0.7 19.911847 4.079552 28.546743 0 0 0
92 31 2 -0.35 19.401034 4.899882 27.905083 0 0 0
93 31 2 -0.35 20.422661 3.259222 29.188404 0 0 0
94 32 1 0.7 12.060997 24.658681 17.248167 0 0 0
95 32 2 -0.35 11.980365 23.669869 17.84929 0 0 0
96 32 2 -0.35 12.141628 25.647493 16.647044 0 0 0
97 33 1 0.7 10.816883 18.148718 24.685444 0 0 0
98 33 2 -0.35 10.194804 18.585626 25.561646 0 0 0
99 33 2 -0.35 11.438961 17.711811 23.809242 0 0 0
100 34 1 0.7 9.161426 23.558583 12.604194 0 0 0
101 34 2 -0.35 8.912202 22.454965 12.348236 0 0 0
102 34 2 -0.35 9.41065 24.662201 12.860152 0 0 0
103 35 1 0.7 8.1088 28.745678 11.824772 0 0 0
104 35 2 -0.35 8.823973 29.314562 12.539264 0 0 0
105 35 2 -0.35 7.393628 28.176794 11.11028 0 0 0
106 36 1 0.7 9.970612 20.156794 29.14194 0 0 0
107 36 2 -0.35 10.982688 20.261181 28.5848 0 0 0
108 36 2 -0.35 8.958535 20.052407 29.69908 0 0 0
109 37 1 0.7 19.198272 18.750169 14.256405 0 0 0
110 37 2 -0.35 19.790717 19.744562 14.180311 0 0 0
111 37 2 -0.35 18.605827 17.755775 14.332498 0 0 0
112 38 1 0.7 3.838368 16.094551 11.039029 0 0 0
113 38 2 -0.35 3.250441 16.055765 12.038247 0 0 0
114 38 2 -0.35 4.426294 16.133337 10.03981 0 0 0
115 39 1 0.7 14.335265 10.009357 21.796186 0 0 0
116 39 2 -0.35 13.636458 10.736352 22.369552 0 0 0
117 39 2 -0.35 15.034071 9.282362 21.222821 0 0 0
118 40 1 0.7 18.98142 8.400445 26.742478 0 0 0
119 40 2 -0.35 18.180497 9.174917 27.065455 0 0 0
120 40 2 -0.35 19.782344 7.625973 26.419501 0 0 0
121 41 1 0.7 23.368917 18.389525 12.056939 0 0 0
122 41 2 -0.35 23.386486 17.596178 12.903044 0 0 0
123 41 2 -0.35 23.351348 19.182872 11.210835 0 0 0
124 42 1 0.7 10.546583 12.582499 18.698106 0 0 0
125 42 2 -0.35 9.403449 12.619936 18.89161 0 0 0
126 42 2 -0.35 11.689716 12.545063 18.504603 0 0 0
127 43 1 0.7 5.642072 10.400931 23.494351 0 0 0
128 43 2 -0.35 6.681605 10.864695 23.27098 0 0 0
129 43 2 -0.35 4.602539 9.937168 23.717723 0 0 0
130 44 1 0.7 18.705379 22.36099 28.208299 0 0 0
131 44 2 -0.35 18.653817 23.283626 28.909501 0 0 0
132 44 2 -0.35 18.756942 21.438354 27.507097 0 0 0
133 45 1 0.7 26.678965 28.290069 7.836199 0 0 0
134 45 2 -0.35 25.889484 29.138907 7.878569 0 0 0
135 45 2 -0.35 27.468445 27.441232 7.793829 0 0 0
136 46 1 0.7 21.121865 6.249077 3.584823 0 0 0
137 46 2 -0.35 20.055525 6.505939 3.207276 0 0 0
138 46 2 -0.35 22.188205 5.992216 3.962369 0 0 0
139 47 1 0.7 22.228263 3.330232 5.588202 0 0 0
140 47 2 -0.35 22.363739 2.178685 5.55375 0 0 0
141 47 2 -0.35 22.092787 4.481778 5.622653 0 0 0
142 48 1 0.7 12.922682 14.023191 12.622248 0 0 0
143 48 2 -0.35 12.829434 14.981253 13.269566 0 0 0
144 48 2 -0.35 13.015931 13.065129 11.974929 0 0 0
145 49 1 0.7 14.350987 3.663638 23.287802 0 0 0
146 49 2 -0.35 15.359631 3.115068 23.122553 0 0 0
147 49 2 -0.35 13.342342 4.212208 23.453052 0 0 0
148 50 1 0.7 23.363005 13.496997 27.621646 0 0 0
149 50 2 -0.35 22.461534 12.783231 27.468389 0 0 0
150 50 2 -0.35 24.264476 14.210763 27.774903 0 0 0
151 51 1 0.7 19.957944 7.684987 10.424572 0 0 0
152 51 2 -0.35 19.522548 8.755232 10.527552 0 0 0
153 51 2 -0.35 20.393341 6.614741 10.321591 0 0 0
154 52 1 0.7 12.553198 26.86329 13.561115 0 0 0
155 52 2 -0.35 12.405366 27.850285 14.152373 0 0 0
156 52 2 -0.35 12.701031 25.876295 12.969857 0 0 0
157 53 1 0.7 18.876213 3.013845 5.199622 0 0 0
158 53 2 -0.35 20.032562 3.035054 5.11014 0 0 0
159 53 2 -0.35 17.719864 2.992636 5.289104 0 0 0
160 54 1 0.7 12.678202 12.12607 14.317912 0 0 0
161 54 2 -0.35 11.549347 12.051084 14.061663 0 0 0
162 54 2 -0.35 13.807057 12.201057 14.57416 0 0 0
163 55 1 0.7 3.777137 30.214217 14.249899 0 0 0
164 55 2 -0.35 3.442828 30.913887 13.387171 0 0 0
165 55 2 -0.35 4.111446 29.514547 15.112627 0 0 0
166 56 1 0.7 23.10496 24.40821 28.67554 0 0 0
167 56 2 -0.35 22.993644 23.262578 28.531533 0 0 0
168 56 2 -0.35 23.216276 25.553841 28.819547 0 0 0
169 57 1 0.7 28.319604 19.03877 17.55617 0 0 0
170 57 2 -0.35 27.786072 18.990074 16.527301 0 0 0
171 57 2 -0.35 28.853135 19.087467 18.58504 0 0 0
172 58 1 0.7 13.778302 12.062139 16.95309 0 0 0
173 58 2 -0.35 14.331958 11.042802 16.9573 0 0 0
174 58 2 -0.35 13.224646 13.081475 16.948879 0 0 0
175 59 1 0.7 26.828593 6.28799 20.638534 0 0 0
176 59 2 -0.35 25.912479 5.968415 20.002762 0 0 0
177 59 2 -0.35 27.744708 6.607565 21.274307 0 0 0
178 60 1 0.7 15.045331 14.441754 23.839151 0 0 0
179 60 2 -0.35 15.541309 14.869153 24.796719 0 0 0
180 60 2 -0.35 14.549353 14.014355 22.881583 0 0 0
181 61 1 0.7 31.741801 5.112286 12.554611 0 0 0
182 61 2 -0.35 31.894919 3.965158 12.633685 0 0 0
183 61 2 -0.35 31.588684 6.259414 12.475538 0 0 0
184 62 1 0.7 10.46256 9.699167 18.262777 0 0 0
185 62 2 -0.35 11.311132 10.169526 18.898612 0 0 0
186 62 2 -0.35 9.613988 9.228807 17.626941 0 0 0
187 63 1 0.7 16.946126 11.805667 23.459919 0 0 0
188 63 2 -0.35 16.240662 10.891544 23.349013 0 0 0
189 63 2 -0.35 17.651589 12.71979 23.570825 0 0 0
190 64 1 0.7 26.917672 27.010963 23.125124 0 0 0
191 64 2 -0.35 27.832633 27.713039 23.249765 0 0 0
192 64 2 -0.35 26.00271 26.308887 23.000483 0 0 0
193 65 1 0.7 20.969737 20.456269 29.630556 0 0 0
194 65 2 -0.35 20.228799 21.142394 30.201383 0 0 0
195 65 2 -0.35 21.710675 19.770143 29.05973 0 0 0
196 66 1 0.7 2.093345 19.148487 22.610861 0 0 0
197 66 2 -0.35 2.012036 18.003651 22.442512 0 0 0
198 66 2 -0.35 2.174654 20.293322 22.779209 0 0 0
199 67 1 0.7 11.061353 27.986479 10.880742 0 0 0
200 67 2 -0.35 11.413816 26.919578 11.169 0 0 0
201 67 2 -0.35 10.708889 29.053379 10.592484 0 0 0
202 68 1 0.7 14.899088 15.871817 11.137227 0 0 0
203 68 2 -0.35 15.452442 15.303855 11.983878 0 0 0
204 68 2 -0.35 14.345734 16.439778 10.290575 0 0 0
205 69 1 0.7 18.904888 19.028797 3.835519 0 0 0
206 69 2 -0.35 18.963875 20.056397 4.370457 0 0 0
207 69 2 -0.35 18.845901 18.001197 3.300581 0 0 0
208 70 1 0.7 21.115022 22.12468 17.945598 0 0 0
209 70 2 -0.35 20.507547 22.655408 17.11199 0 0 0
210 70 2 -0.35 21.722497 21.593952 18.779206 0 0 0
211 71 1 0.7 7.514994 14.842925 8.212575 0 0 0
212 71 2 -0.35 7.688705 14.359605 9.252684 0 0 0
213 71 2 -0.35 7.341284 15.326244 7.172466 0 0 0
214 72 1 0.7 10.976948 17.889372 19.321274 0 0 0
215 72 2 -0.35 11.395648 18.227387 18.293638 0 0 0
216 72 2 -0.35 10.558249 17.551356 20.348911 0 0 0
217 73 1 0.7 21.983775 5.467319 11.39736 0 0 0
218 73 2 -0.35 21.128546 4.704921 11.215885 0 0 0
219 73 2 -0.35 22.839004 6.229716 11.578835 0 0 0
220 74 1 0.7 15.28734 30.953615 4.663176 0 0 0
221 74 2 -0.35 14.224004 30.490116 4.653991 0 0 0
222 74 2 -0.35 16.350677 31.417115 4.672361 0 0 0
223 75 1 0.7 7.009829 24.290789 18.84129 0 0 0
224 75 2 -0.35 6.668141 23.572237 17.997174 0 0 0
225 75 2 -0.35 7.351517 25.009341 19.685407 0 0 0
226 76 1 0.7 6.315394 31.010205 12.247217 0 0 0
227 76 2 -0.35 5.747282 30.109322 11.787589 0 0 0
228 76 2 -0.35 6.883506 31.911089 12.706845 0 0 0
229 77 1 0.7 9.215209 12.278921 30.841974 0 0 0
230 77 2 -0.35 9.471892 12.433088 31.962664 0 0 0
231 77 2 -0.35 8.958525 12.124753 29.721284 0 0 0
232 78 1 0.7 20.47468 18.292257 10.107588 0 0 0
233 78 2 -0.35 20.399068 19.322883 10.634554 0 0 0
234 78 2 -0.35 20.550293 17.261631 9.580622 0 0 0
235 79 1 0.7 23.831216 29.83052 11.489097 0 0 0
236 79 2 -0.35 22.834724 29.236908 11.473966 0 0 0
237 79 2 -0.35 24.827708 30.424132 11.504228 0 0 0
238 80 1 0.7 16.444829 14.03602 10.016161 0 0 0
239 80 2 -0.35 16.051128 12.952162 10.142068 0 0 0
240 80 2 -0.35 16.83853 15.119877 9.890254 0 0 0
241 81 1 0.7 5.043096 17.94009 21.166914 0 0 0
242 81 2 -0.35 4.583808 18.357887 22.146761 0 0 0
243 81 2 -0.35 5.502383 17.522293 20.187067 0 0 0
244 82 1 0.7 10.359303 11.051049 15.666614 0 0 0
245 82 2 -0.35 10.049232 10.049538 15.170195 0 0 0
246 82 2 -0.35 10.669374 12.05256 16.163033 0 0 0
247 83 1 0.7 26.909546 17.563929 9.758527 0 0 0
248 83 2 -0.35 27.713549 18.389907 9.62837 0 0 0
249 83 2 -0.35 26.105543 16.737951 9.888683 0 0 0
250 84 1 0.7 18.070084 5.824616 6.014592 0 0 0
251 84 2 -0.35 16.923952 5.930701 5.870618 0 0 0
252 84 2 -0.35 19.216215 5.718531 6.158565 0 0 0
253 85 1 0.7 25.428505 24.769289 27.472499 0 0 0
254 85 2 -0.35 25.581919 25.84728 27.872498 0 0 0
255 85 2 -0.35 25.275092 23.691298 27.0725 0 0 0
256 86 1 0.7 6.971742 26.741626 31.074383 0 0 0
257 86 2 -0.35 7.039898 27.760241 30.523586 0 0 0
258 86 2 -0.35 6.903586 25.72301 31.62518 0 0 0
259 87 1 0.7 28.468198 8.304282 25.30477 0 0 0
260 87 2 -0.35 29.083011 7.321308 25.267792 0 0 0
261 87 2 -0.35 27.853385 9.287256 25.341748 0 0 0
262 88 1 0.7 19.697832 20.059283 19.253114 0 0 0
263 88 2 -0.35 20.254935 19.263745 19.887429 0 0 0
264 88 2 -0.35 19.14073 20.854822 18.618799 0 0 0
265 89 1 0.7 4.771733 8.005153 14.87183 0 0 0
266 89 2 -0.35 5.371857 8.997641 14.851317 0 0 0
267 89 2 -0.35 4.17161 7.012666 14.892342 0 0 0
268 90 1 0.7 31.148981 8.778191 28.689888 0 0 0
269 90 2 -0.35 30.351605 9.452317 29.195206 0 0 0
270 90 2 -0.35 31.946358 8.104066 28.18457 0 0 0
271 91 1 0.7 2.071141 19.518064 18.622735 0 0 0
272 91 2 -0.35 2.130842 18.372303 18.793815 0 0 0
273 91 2 -0.35 2.011439 20.663824 18.451655 0 0 0
274 92 1 0.7 6.50877 7.912546 9.460747 0 0 0
275 92 2 -0.35 6.749098 6.991586 10.123827 0 0 0
276 92 2 -0.35 6.268443 8.833506 8.797666 0 0 0
277 93 1 0.7 22.898206 23.270287 9.997266 0 0 0
278 93 2 -0.35 21.980804 22.572746 10.129213 0 0 0
279 93 2 -0.35 23.815608 23.967828 9.865319 0 0 0
280 94 1 0.7 5.680332 20.643493 25.872013 0 0 0
281 94 2 -0.35 5.094036 21.641512 25.795763 0 0 0
282 94 2 -0.35 6.266628 19.645473 25.948263 0 0 0
283 95 1 0.7 30.28485 16.307506 12.834017 0 0 0
284 95 2 -0.35 31.385973 16.471368 13.160018 0 0 0
285 95 2 -0.35 29.183727 16.143644 12.508016 0 0 0
286 96 1 0.7 14.481582 5.417653 30.881837 0 0 0
287 96 2 -0.35 14.384792 6.570605 30.798563 0 0 0
288 96 2 -0.35 14.578373 4.264702 30.965112 0 0 0
289 97 1 0.7 14.199657 19.547348 26.497431 0 0 0
290 97 2 -0.35 14.866036 20.153457 27.228301 0 0 0
291 97 2 -0.35 13.533278 18.94124 25.76656 0 0 0
292 98 1 0.7 2.871271 16.535616 19.920463 0 0 0
293 98 2 -0.35 2.016903 16.180903 20.620345 0 0 0
294 98 2 -0.35 3.725639 16.890329 19.220581 0 0 0
295 99 1 0.7 29.465737 28.646767 8.265635 0 0 0
296 99 2 -0.35 30.065575 27.73297 7.877346 0 0 0
297 99 2 -0.35 28.865899 29.560565 8.653924 0 0 0
298 100 1 0.7 19.668025 11.733589 26.047452 0 0 0
299 100 2 -0.35 18.537093 11.730043 26.305481 0 0 0
300 100 2 -0.35 20.798958 11.737135 25.789422 0 0 0
301 101 1 0.7 26.196468 3.899868 18.594286 0 0 0
302 101 2 -0.35 25.219161 4.413035 18.237733 0 0 0
303 101 2 -0.35 27.173775 3.3867 18.950839 0 0 0
304 102 1 0.7 30.019835 20.96409 25.405124 0 0 0
305 102 2 -0.35 28.919313 20.882637 25.762638 0 0 0
306 102 2 -0.35 31.120357 21.045542 25.047609 0 0 0
307 103 1 0.7 14.985783 30.325904 29.749554 0 0 0
308 103 2 -0.35 14.611526 29.292263 30.119849 0 0 0
309 103 2 -0.35 15.36004 31.359544 29.379259 0 0 0
310 104 1 0.7 4.911491 19.200811 29.597393 0 0 0
311 104 2 -0.35 5.696832 18.481598 30.057363 0 0 0
312 104 2 -0.35 4.126149 19.920023 29.137423 0 0 0
313 105 1 0.7 15.456083 3.157263 19.774324 0 0 0
314 105 2 -0.35 15.416798 2.838218 18.659753 0 0 0
315 105 2 -0.35 15.495368 3.476308 20.888894 0 0 0
316 106 1 0.7 8.355674 14.139108 26.698192 0 0 0
317 106 2 -0.35 9.458928 13.800389 26.581144 0 0 0
318 106 2 -0.35 7.25242 14.477827 26.81524 0 0 0
319 107 1 0.7 3.501771 16.839174 31.052196 0 0 0
320 107 2 -0.35 4.623236 16.964346 31.320985 0 0 0
321 107 2 -0.35 2.380305 16.714001 30.783408 0 0 0
322 108 1 0.7 12.442951 21.110478 22.323396 0 0 0
323 108 2 -0.35 12.275426 20.14248 22.940254 0 0 0
324 108 2 -0.35 12.610477 22.078476 21.706537 0 0 0
325 109 1 0.7 15.255444 24.786187 13.93276 0 0 0
326 109 2 -0.35 15.312072 25.942314 14.008685 0 0 0
327 109 2 -0.35 15.198815 23.63006 13.856836 0 0 0
328 110 1 0.7 25.805713 7.936932 10.399273 0 0 0
329 110 2 -0.35 26.528441 8.83128 10.246284 0 0 0
330 110 2 -0.35 25.082985 7.042583 10.552262 0 0 0
331 111 1 0.7 13.586125 6.390101 28.425117 0 0 0
332 111 2 -0.35 14.507491 7.094859 28.423329 0 0 0
333 111 2 -0.35 12.66476 5.685344 28.426905 0 0 0
334 112 1 0.7 6.38949 13.646668 20.332461 0 0 0
335 112 2 -0.35 6.160912 12.585767 19.922779 0 0 0
336 112 2 -0.35 6.618068 14.70757 20.742144 0 0 0
337 113 1 0.7 13.78376 2.852517 3.360702 0 0 0
338 113 2 -0.35 12.776334 3.057134 2.823278 0 0 0
339 113 2 -0.35 14.791186 2.6479 3.898126 0 0 0
340 114 1 0.7 6.635483 21.11408 7.151938 0 0 0
341 114 2 -0.35 7.586442 21.538131 7.663267 0 0 0
342 114 2 -0.35 5.684523 20.69003 6.640609 0 0 0
343 115 1 0.7 28.485499 9.383969 12.974967 0 0 0
344 115 2 -0.35 27.851276 9.166975 12.028248 0 0 0
345 115 2 -0.35 29.119722 9.600962 13.921685 0 0 0
346 116 1 0.7 2.867495 14.829712 3.249734 0 0 0
347 116 2 -0.35 2.067093 14.088933 3.644958 0 0 0
348 116 2 -0.35 3.667898 15.570491 2.854509 0 0 0
349 117 1 0.7 15.456326 9.321528 25.514114 0 0 0
350 117 2 -0.35 15.588267 9.871379 26.526959 0 0 0
351 117 2 -0.35 15.324386 8.771676 24.501269 0 0 0
352 118 1 0.7 25.756862 18.435843 24.714251 0 0 0
353 118 2 -0.35 26.107896 19.083786 23.818403 0 0 0
354 118 2 -0.35 25.405829 17.787901 25.6101 0 0 0
355 119 1 0.7 26.199495 22.486379 22.135427 0 0 0
356 119 2 -0.35 25.50018 23.383795 21.909147 0 0 0
357 119 2 -0.35 26.89881 21.588962 22.361707 0 0 0
358 120 1 0.7 8.703221 5.844014 24.336678 0 0 0
359 120 2 -0.35 7.993176 4.926888 24.318893 0 0 0
360 120 2 -0.35 9.413266 6.76114 24.354464 0 0 0
361 121 1 0.7 24.194448 21.021489 8.902484 0 0 0
362 121 2 -0.35 24.739072 21.042745 7.878505 0 0 0
363 121 2 -0.35 23.649825 21.000232 9.926463 0 0 0
364 122 1 0.7 24.752531 30.545743 25.684136 0 0 0
365 122 2 -0.35 25.893568 30.739516 25.606114 0 0 0
366 122 2 -0.35 23.611495 30.35197 25.762158 0 0 0
367 123 1 0.7 20.239447 28.357384 19.779226 0 0 0
368 123 2 -0.35 20.762525 27.370911 20.093647 0 0 0
369 123 2 -0.35 19.716369 29.343856 19.464805 0 0 0
370 124 1 0.7 22.325965 15.941989 4.04237 0 0 0
371 124 2 -0.35 22.473285 14.803236 4.207102 0 0 0
372 124 2 -0.35 22.178646 17.080743 3.877637 0 0 0
373 125 1 0.7 13.855184 11.185373 9.473498 0 0 0
374 125 2 -0.35 14.792613 11.40806 8.82756 0 0 0
375 125 2 -0.35 12.917755 10.962687 10.119437 0 0 0
376 126 1 0.7 18.274004 11.932917 28.926024 0 0 0
377 126 2 -0.35 18.957411 12.658886 29.518919 0 0 0
378 126 2 -0.35 17.590597 11.206948 28.333129 0 0 0
379 127 1 0.7 3.89963 21.708664 10.564759 0 0 0
380 127 2 -0.35 3.270949 20.742213 10.436956 0 0 0
381 127 2 -0.35 4.52831 22.675115 10.692562 0 0 0
382 128 1 0.7 7.782533 24.22002 10.170036 0 0 0
383 128 2 -0.35 7.356557 23.598589 11.052062 0 0 0
384 128 2 -0.35 8.208508 24.841451 9.288011 0 0 0
385 129 1 0.7 15.691772 27.376356 17.648666 0 0 0
386 129 2 -0.35 15.470774 26.817739 16.656342 0 0 0
387 129 2 -0.35 15.912771 27.934972 18.64099 0 0 0
388 130 1 0.7 9.935594 7.84657 2.536074 0 0 0
389 130 2 -0.35 10.822123 8.592504 2.479083 0 0 0
390 130 2 -0.35 9.049064 7.100635 2.593066 0 0 0
391 131 1 0.7 11.011873 17.898264 5.447793 0 0 0
392 131 2 -0.35 11.649827 17.062719 4.957407 0 0 0
393 131 2 -0.35 10.373918 18.733809 5.93818 0 0 0
394 132 1 0.7 26.109979 10.17877 15.028975 0 0 0
395 132 2 -0.35 26.01765 9.056244 14.751467 0 0 0
396 132 2 -0.35 26.202308 11.301296 15.306482 0 0 0
397 133 1 0.7 4.911458 24.452328 29.539859 0 0 0
398 133 2 -0.35 4.186477 24.535117 28.638112 0 0 0
399 133 2 -0.35 5.636439 24.369539 30.441607 0 0 0
400 134 1 0.7 7.732856 22.072001 16.231252 0 0 0
401 134 2 -0.35 8.21354 21.656172 17.201628 0 0 0
402 134 2 -0.35 7.252172 22.48783 15.260877 0 0 0
403 135 1 0.7 3.359872 13.880575 20.132173 0 0 0
404 135 2 -0.35 2.664342 13.788003 19.208448 0 0 0
405 135 2 -0.35 4.055402 13.973147 21.055899 0 0 0
406 136 1 0.7 9.72853 2.919349 15.906325 0 0 0
407 136 2 -0.35 10.718037 3.1795 15.359701 0 0 0
408 136 2 -0.35 8.739024 2.659198 16.452949 0 0 0
409 137 1 0.7 12.344724 5.919603 11.542247 0 0 0
410 137 2 -0.35 12.706931 7.012302 11.399369 0 0 0
411 137 2 -0.35 11.982516 4.826904 11.685126 0 0 0
412 138 1 0.7 23.997862 31.765982 14.70476 0 0 0
413 138 2 -0.35 25.102646 31.535584 14.436494 0 0 0
414 138 2 -0.35 22.893077 31.996381 14.973026 0 0 0
415 139 1 0.7 12.342145 26.952316 30.983728 0 0 0
416 139 2 -0.35 11.634764 26.071313 31.246491 0 0 0
417 139 2 -0.35 13.049526 27.83332 30.720964 0 0 0
418 140 1 0.7 4.885019 30.466931 5.718623 0 0 0
419 140 2 -0.35 4.955305 31.500703 5.197111 0 0 0
420 140 2 -0.35 4.814733 29.433158 6.240135 0 0 0
421 141 1 0.7 31.182084 23.27836 29.600196 0 0 0
422 141 2 -0.35 31.961054 22.485972 29.933254 0 0 0
423 141 2 -0.35 30.403115 24.070749 29.267139 0 0 0
424 142 1 0.7 17.987703 29.977811 17.159037 0 0 0
425 142 2 -0.35 16.878297 30.313219 17.110871 0 0 0
426 142 2 -0.35 19.097109 29.642403 17.207203 0 0 0
427 143 1 0.7 6.077663 11.50248 2.916737 0 0 0
428 143 2 -0.35 5.455008 10.706338 2.347475 0 0 0
429 143 2 -0.35 6.700318 12.298621 3.485999 0 0 0
430 144 1 0.7 28.224523 9.115044 22.063873 0 0 0
431 144 2 -0.35 28.599275 9.054775 23.160016 0 0 0
432 144 2 -0.35 27.849771 9.175313 20.967731 0 0 0
433 145 1 0.7 18.557779 10.864406 4.172136 0 0 0
434 145 2 -0.35 18.847007 11.983481 4.074056 0 0 0
435 145 2 -0.35 18.268551 9.745332 4.270215 0 0 0
436 146 1 0.7 9.781506 16.802027 9.032507 0 0 0
437 146 2 -0.35 9.080519 17.506076 8.433731 0 0 0
438 146 2 -0.35 10.482492 16.097978 9.631283 0 0 0
439 147 1 0.7 5.742768 2.582771 7.659404 0 0 0
440 147 2 -0.35 6.797621 2.921325 7.315506 0 0 0
441 147 2 -0.35 4.687914 2.244217 8.003303 0 0 0
442 148 1 0.7 16.020274 17.996107 3.215907 0 0 0
443 148 2 -0.35 15.799179 19.123744 3.3745 0 0 0
444 148 2 -0.35 16.241369 16.86847 3.057313 0 0 0
445 149 1 0.7 14.675445 12.105112 25.305035 0 0 0
446 149 2 -0.35 15.78493 11.78832 25.424556 0 0 0
447 149 2 -0.35 13.56596 12.421904 25.185513 0 0 0
448 150 1 0.7 15.333403 11.254815 30.086852 0 0 0
449 150 2 -0.35 15.209567 12.170815 29.385989 0 0 0
450 150 2 -0.35 15.457238 10.338815 30.787714 0 0 0
451 151 1 0.7 28.678358 6.841636 29.068844 0 0 0
452 151 2 -0.35 29.4019 5.950046 28.904059 0 0 0
453 151 2 -0.35 27.954816 7.733226 29.233629 0 0 0
454 152 1 0.7 21.580084 10.930325 5.549252 0 0 0
455 152 2 -0.35 22.592835 11.217476 6.036572 0 0 0
456 152 2 -0.35 20.567334 10.643174 5.061931 0 0 0
457 153 1 0.7 21.595401 8.706576 5.877954 0 0 0
458 153 2 -0.35 21.404778 8.4075 4.773501 0 0 0
459 153 2 -0.35 21.786024 9.005652 6.982407 0 0 0
460 154 1 0.7 9.207353 29.987604 22.314992 0 0 0
461 154 2 -0.35 10.357843 30.130848 22.353123 0 0 0
462 154 2 -0.35 8.056863 29.844361 22.276861 0 0 0
463 155 1 0.7 9.924118 13.310524 12.683668 0 0 0
464 155 2 -0.35 9.47552 12.478093 13.355544 0 0 0
465 155 2 -0.35 10.372717 14.142955 12.011792 0 0 0
466 156 1 0.7 18.511601 15.001327 12.29227 0 0 0
467 156 2 -0.35 18.799319 14.371917 11.361324 0 0 0
468 156 2 -0.35 18.223882 15.630736 13.223217 0 0 0
469 157 1 0.7 6.09298 12.512234 26.665127 0 0 0
470 157 2 -0.35 7.217957 12.281262 26.501786 0 0 0
471 157 2 -0.35 4.968004 12.743206 26.828468 0 0 0
472 158 1 0.7 28.616651 19.427077 22.88408 0 0 0
473 158 2 -0.35 28.962883 20.502662 22.621703 0 0 0
474 158 2 -0.35 28.27042 18.351493 23.146457 0 0 0
475 159 1 0.7 12.230353 21.157658 31.294607 0 0 0
476 159 2 -0.35 12.228144 22.196991 30.779455 0 0 0
477 159 2 -0.35 12.232562 20.118325 31.809758 0 0 0
478 160 1 0.7 24.258858 20.799427 29.897591 0 0 0
479 160 2 -0.35 23.961425 21.103816 30.976703 0 0 0
480 160 2 -0.35 24.556291 20.495038 28.81848 0 0 0
481 161 1 0.7 6.876719 23.637982 5.043921 0 0 0
482 161 2 -0.35 6.116378 24.31691 4.490262 0 0 0
483 161 2 -0.35 7.63706 22.959053 5.597579 0 0 0
484 162 1 0.7 7.243019 17.400053 11.139604 0 0 0
485 162 2 -0.35 8.192583 17.535629 11.791944 0 0 0
486 162 2 -0.35 6.293455 17.264477 10.487264 0 0 0
487 163 1 0.7 3.379817 28.213804 12.394438 0 0 0
488 163 2 -0.35 2.310616 28.65353 12.299309 0 0 0
489 163 2 -0.35 4.449018 27.774078 12.489568 0 0 0
490 164 1 0.7 3.398941 27.634822 26.819974 0 0 0
491 164 2 -0.35 2.704169 26.706606 26.783813 0 0 0
492 164 2 -0.35 4.093713 28.563037 26.856134 0 0 0
493 165 1 0.7 23.676899 29.360216 30.314747 0 0 0
494 165 2 -0.35 24.722216 28.858231 30.345154 0 0 0
495 165 2 -0.35 22.631583 29.862201 30.284339 0 0 0
496 166 1 0.7 25.11959 20.270329 16.555127 0 0 0
497 166 2 -0.35 24.116809 19.690469 16.493543 0 0 0
498 166 2 -0.35 26.122372 20.850188 16.616712 0 0 0
499 167 1 0.7 6.805802 24.226331 2.387967 0 0 0
500 167 2 -0.35 5.873005 24.902043 2.250476 0 0 0
501 167 2 -0.35 7.738598 23.550619 2.525457 0 0 0
502 168 1 0.7 15.565508 20.79644 20.431917 0 0 0
503 168 2 -0.35 16.679416 20.579123 20.191956 0 0 0
504 168 2 -0.35 14.4516 21.013758 20.671879 0 0 0
505 169 1 0.7 28.862687 23.900058 3.156859 0 0 0
506 169 2 -0.35 29.848935 24.458746 3.403396 0 0 0
507 169 2 -0.35 27.876438 23.341369 2.910322 0 0 0
508 170 1 0.7 7.568929 14.872492 31.091829 0 0 0
509 170 2 -0.35 6.864591 15.166295 31.965435 0 0 0
510 170 2 -0.35 8.273266 14.578688 30.218222 0 0 0
511 171 1 0.7 16.113292 27.983303 10.716422 0 0 0
512 171 2 -0.35 16.449733 27.066911 11.343026 0 0 0
513 171 2 -0.35 15.776851 28.899696 10.089819 0 0 0
514 172 1 0.7 28.484611 22.482325 19.310519 0 0 0
515 172 2 -0.35 28.891204 23.568434 19.285016 0 0 0
516 172 2 -0.35 28.078018 21.396217 19.336023 0 0 0
517 173 1 0.7 27.129227 13.694676 9.245947 0 0 0
518 173 2 -0.35 26.035482 13.613443 9.623734 0 0 0
519 173 2 -0.35 28.222972 13.775909 8.868159 0 0 0
520 174 1 0.7 16.236741 21.808567 10.923203 0 0 0
521 174 2 -0.35 16.367302 22.510599 11.837372 0 0 0
522 174 2 -0.35 16.106179 21.106535 10.009034 0 0 0
523 175 1 0.7 12.107441 26.278102 23.313247 0 0 0
524 175 2 -0.35 12.066444 25.256021 23.860303 0 0 0
525 175 2 -0.35 12.148439 27.300182 22.76619 0 0 0
526 176 1 0.7 4.358154 10.082412 10.180832 0 0 0
527 176 2 -0.35 5.474214 10.23215 10.459377 0 0 0
528 176 2 -0.35 3.242093 9.932673 9.902287 0 0 0
529 177 1 0.7 26.85147 11.029737 8.786175 0 0 0
530 177 2 -0.35 25.816871 10.759367 9.235737 0 0 0
531 177 2 -0.35 27.886068 11.300107 8.336613 0 0 0
532 178 1 0.7 17.249785 5.485648 25.563158 0 0 0
533 178 2 -0.35 16.15384 5.688465 25.884671 0 0 0
534 178 2 -0.35 18.34573 5.282832 25.241645 0 0 0
535 179 1 0.7 21.676028 15.899653 20.962912 0 0 0
536 179 2 -0.35 22.325576 14.946832 20.837137 0 0 0
537 179 2 -0.35 21.02648 16.852474 21.088686 0 0 0
538 180 1 0.7 15.765788 14.407516 16.792232 0 0 0
539 180 2 -0.35 16.510129 13.524009 16.687493 0 0 0
540 180 2 -0.35 15.021446 15.291023 16.89697 0 0 0
541 181 1 0.7 21.391653 10.970796 23.110199 0 0 0
542 181 2 -0.35 20.582569 10.159893 22.927387 0 0 0
543 181 2 -0.35 22.200736 11.7817 23.29301 0 0 0
544 182 1 0.7 12.716845 8.413369 16.586748 0 0 0
545 182 2 -0.35 12.388887 7.517582 17.246755 0 0 0
546 182 2 -0.35 13.044803 9.309156 15.926742 0 0 0
547 183 1 0.7 28.098322 5.560814 6.233473 0 0 0
548 183 2 -0.35 28.421141 6.192328 7.151394 0 0 0
549 183 2 -0.35 27.775504 4.929301 5.315552 0 0 0
550 184 1 0.7 3.61466 24.521132 13.401372 0 0 0
551 184 2 -0.35 3.234468 25.442593 12.808107 0 0 0
552 184 2 -0.35 3.994852 23.599671 13.994636 0 0 0
553 185 1 0.7 6.540191 22.777817 28.98388 0 0 0
554 185 2 -0.35 5.652071 22.408922 28.335219 0 0 0
555 185 2 -0.35 7.428311 23.146711 29.63254 0 0 0
556 186 1 0.7 26.463115 18.314315 14.878778 0 0 0
557 186 2 -0.35 26.575057 19.231975 14.178087 0 0 0
558 186 2 -0.35 26.351173 17.396654 15.579469 0 0 0
559 187 1 0.7 16.823596 18.337479 10.082494 0 0 0
560 187 2 -0.35 16.00159 18.910267 9.49784 0 0 0
561 187 2 -0.35 17.645602 17.764692 10.667148 0 0 0
562 188 1 0.7 27.462072 15.80533 18.086835 0 0 0
563 188 2 -0.35 27.252292 14.671556 17.959754 0 0 0
564 188 2 -0.35 27.671852 16.939104 18.213917 0 0 0
565 189 1 0.7 11.289091 17.315412 12.297126 0 0 0
566 189 2 -0.35 11.893302 16.698446 11.522605 0 0 0
567 189 2 -0.35 10.68488 17.932378 13.071646 0 0 0
568 190 1 0.7 25.397647 9.239136 17.382106 0 0 0
569 190 2 -0.35 25.439854 10.290526 17.870364 0 0 0
570 190 2 -0.35 25.355439 8.187745 16.893847 0 0 0
571 191 1 0.7 6.92977 6.569169 6.531678 0 0 0
572 191 2 -0.35 7.966927 6.07328 6.686597 0 0 0
573 191 2 -0.35 5.892613 7.065058 6.376759 0 0 0
574 192 1 0.7 6.665312 28.006749 16.489408 0 0 0
575 192 2 -0.35 6.296404 29.106337 16.469088 0 0 0
576 192 2 -0.35 7.03422 26.907161 16.509729 0 0 0
577 193 1 0.7 8.982472 13.531249 24.036847 0 0 0
578 193 2 -0.35 8.225218 12.653869 23.988164 0 0 0
579 193 2 -0.35 9.739727 14.408629 24.08553 0 0 0
580 194 1 0.7 3.873056 12.854966 22.987052 0 0 0
581 194 2 -0.35 4.943005 13.104951 23.358961 0 0 0
582 194 2 -0.35 2.803106 12.60498 22.615144 0 0 0
583 195 1 0.7 19.838374 24.963035 29.801921 0 0 0
584 195 2 -0.35 20.577914 24.075047 29.701134 0 0 0
585 195 2 -0.35 19.098834 25.851023 29.902707 0 0 0
586 196 1 0.7 12.717646 12.174704 27.312532 0 0 0
587 196 2 -0.35 13.846111 12.14966 27.580002 0 0 0
588 196 2 -0.35 11.589181 12.199748 27.045062 0 0 0
589 197 1 0.7 25.307191 27.77947 20.444714 0 0 0
590 197 2 -0.35 26.201981 27.910056 19.718148 0 0 0
591 197 2 -0.35 24.412401 27.648885 21.171279 0 0 0
592 198 1 0.7 19.132801 14.333653 24.573285 0 0 0
593 198 2 -0.35 18.462373 15.280156 24.557202 0 0 0
594 198 2 -0.35 19.803228 13.387149 24.589368 0 0 0
595 199 1 0.7 10.956684 12.561168 3.384328 0 0 0
596 199 2 -0.35 12.012677 12.892156 3.732073 0 0 0
597 199 2 -0.35 9.900692 12.230181 3.036582 0 0 0
598 200 1 0.7 22.291027 17.414991 23.989638 0 0 0
599 200 2 -0.35 21.238878 17.001511 24.24967 0 0 0