ITEM: TIMESTEP
0
ITEM: NUMBER OF ATOMS
600
ITEM: BOX BOUNDS pp pp pp
0.0000000000000000e+00 3.6000000000000000e+01
0.0000000000000000e+00 3.6000000000000000e+01
0.0000000000000000e+00 3.6000000000000000e+01
ITEM: ATOMS id type xu yu zu
566 2 1.17243 5.45685 38.8609
524 2 6.64479 0.641665 2.08087
523 1 5.98414 0.398019 3.0027
565 1 1.82428 5.63541 37.9181
567 2 2.47613 5.81398 36.9754
501 2 8.61303 1.26484 43.195
499 1 8.04117 1.58701 42.2386
440 2 1.66897 1.70165 37.8834
500 2 7.46931 1.90919 41.2822
525 2 5.32349 0.154372 3.92453
282 2 8.68015 3.03349 74.4142
439 1 1.89249 0.583048 37.6728
280 1 9.21651 3.56877 75.2925
426 2 46.7077 72.057 38.9431
425 2 47.3968 72.1872 36.7316
424 1 47.0522 72.1221 37.8374
33 2 16.1414 74.6635 4.01528
283 1 11.5768 8.82664 76.3446
32 2 15.0971 76.1063 2.52857
31 1 15.6193 75.3849 3.27193
71 2 14.434 -30.3772 5.31225
281 2 9.75287 4.10404 76.1708
70 1 14.945 -29.3436 5.439
72 2 15.456 -28.3099 5.56576
284 2 12.1868 8.16274 77.0745
374 2 17.9579 75.2558 1.06421
373 1 17.1306 74.5419 0.674728
375 2 16.3033 73.8281 0.285251
96 2 40.9785 11.3976 44.0162
94 1 41.9002 12.1018 44.0053
95 2 42.822 12.806 43.9944
285 2 10.9668 9.49053 75.6147
364 1 52.1006 15.2041 38.2672
365 2 51.1736 14.6959 38.7448
366 2 53.0276 15.7122 37.7896
556 1 16.1452 -22.5614 44.7842
531 2 14.3454 14.3197 5.85226
176 2 46.8721 14.856 4.04563
177 2 47.1475 17.1191 3.61527
530 2 12.9755 12.4544 5.68954
529 1 13.6605 13.387 5.7709
175 1 47.0098 15.9875 3.83045
557 2 16.6877 -23.4737 44.3163
564 2 6.02535 6.05784 17.4438
573 2 1.77523 80.7997 -18.6862
44 2 8.75193 11.3824 14.1915
43 1 7.834 10.6947 14.0182
45 2 6.91607 10.007 13.8449
571 1 2.48015 81.5534 -19.216
572 2 3.18508 82.3071 -19.7457
464 2 37.8115 15.6697 -19.8775
463 1 38.241 14.5927 -19.9104
465 2 38.6705 13.5156 -19.9433
347 2 7.04355 -25.5398 -54.6036
185 2 -25.4428 50.266 53.1825
105 2 49.2209 15.1993 16.2592
199 1 11.4207 -18.2427 13.281
104 2 48.908 12.9012 16.2018
184 1 -26.5175 50.2554 53.619
223 1 14.4024 -18.8364 13.0677
103 1 49.0644 14.0503 16.2305
201 2 11.4447 -19.3698 13.0078
224 2 14.5884 -19.7242 13.7907
558 2 15.6027 -21.6491 45.2522
303 2 36.013 43.1189 59.3266
427 1 3.0223 40.8659 23.923
429 2 2.05492 40.2258 23.9326
428 2 3.98967 41.5059 23.9134
570 2 7.04377 -31.072 -9.39159
563 2 7.62076 5.63294 19.0737
53 2 1.83363 37.0277 23.8872
52 1 2.64761 36.6785 24.6362
562 1 6.82306 5.84539 18.2587
54 2 3.46158 36.3292 25.3853
219 2 -24.0077 5.95317 54.0175
217 1 -23.831 5.48031 55.0619
218 2 -23.6543 5.00745 56.1063
346 1 7.14994 -26.1187 -53.604
492 2 37.2386 -24.8121 19.4132
87 2 -29.9564 47.6122 21.9167
491 2 36.8642 -26.3536 21.1061
85 1 -29.8111 48.7283 22.1972
86 2 -29.6657 49.8445 22.4778
490 1 37.0514 -25.5829 20.2597
348 2 7.25633 -26.6976 -52.6044
186 2 -27.5922 50.2448 54.0555
383 2 13.1392 16.9416 -16.874
358 1 11.5073 9.40277 21.0574
359 2 11.1479 9.00564 20.0284
30 2 14.3465 11.4275 19.0115
360 2 11.8667 9.79991 22.0863
80 2 52.9765 46.1534 57.2582
416 2 17.7526 15.6651 21.7557
415 1 17.6587 14.8927 20.8954
81 2 51.1658 45.1433 56.2173
417 2 17.5648 14.1203 20.035
79 1 52.0712 45.6483 56.7377
28 1 13.3004 11.1492 18.5945
382 1 12.6808 17.7007 -17.6219
29 2 12.2543 10.8709 18.1774
337 1 5.89917 -33.762 -3.74149
339 2 5.01039 -34.4819 -3.93495
338 2 6.78795 -33.0421 -3.54804
592 1 41.3589 41.915 -1.36514
594 2 41.9246 41.7911 -0.359981
593 2 40.7933 42.0388 -2.37031
493 1 -31.817 2.39623 29.3096
494 2 -32.9402 2.15647 29.4725
495 2 -30.6938 2.63598 29.1468
455 2 7.59463 5.00312 -6.23333
569 2 5.00087 -30.599 -8.39898
454 1 8.13102 6.02741 -6.13996
568 1 6.02232 -30.8355 -8.89529
456 2 8.66741 7.0517 -6.04658
320 2 5.66211 8.1941 -8.0924
2 2 0.237627 -28.0227 -6.9713
198 2 -20.5942 36.9587 -6.46004
550 1 16.8209 43.4212 -4.10005
299 2 47.5691 1.43065 -4.97402
298 1 46.5873 2.04833 -4.96592
390 2 14.003 7.87477 32.2429
74 2 -19.2199 -31.7935 33.0388
389 2 12.0244 8.99452 32.7053
300 2 45.6054 2.666 -4.95782
388 1 13.0137 8.43464 32.4741
73 1 -19.9599 -32.6845 32.974
552 2 16.4133 42.7679 -4.96763
197 2 -18.9018 37.7467 -7.83742
196 1 -19.748 37.3527 -7.14873
551 2 17.2284 44.0745 -3.23246
75 2 -20.6999 -33.5754 32.9093
263 2 47.707 3.12198 35.1021
262 1 48.8361 3.21654 35.3505
264 2 49.9653 3.3111 35.599
319 1 5.74845 9.2582 -7.63869
321 2 5.83479 10.3223 -7.18498
392 2 -18.2383 12.0452 -36.1019
596 2 51.0051 17.7321 29.9947
261 2 17.6187 51.5307 67.759
260 2 16.9479 52.0535 69.9174
259 1 17.2833 51.7921 68.8382
274 1 6.66219 24.5731 -31.4005
276 2 6.48705 24.8435 -30.2861
275 2 6.83734 24.3027 -32.5149
368 2 38.8561 -10.4874 0.37917
47 2 41.3383 26.6074 39.6672
24 2 -19.8659 -9.16557 37.8023
90 2 37.6883 -7.62099 44.5344
441 2 2.11601 -0.535554 37.4622
457 1 5.83844 28.7331 -28.1188
459 2 6.23248 29.6382 -28.7279
458 2 5.44441 27.8279 -27.5097
249 2 37.6048 35.5448 42.0724
248 2 37.4576 33.3695 42.8654
247 1 37.5312 34.4571 42.4689
48 2 39.4303 27.7102 38.9421
46 1 40.3843 27.1588 39.3047
239 2 15.4513 30.2021 37.8642
240 2 17.2694 29.9465 39.2825
22 1 -20.9052 -8.85869 37.3884
49 1 16.0975 29.2905 -28.0282
361 1 10.2816 -7.06096 5.56422
23 2 -21.9445 -8.5518 36.9745
363 2 10.6323 -7.73824 4.69018
362 2 9.93096 -6.38368 6.43825
294 2 13.7332 32.0381 3.54266
293 2 12.6744 30.0458 4.08345
292 1 13.2038 31.042 3.81306
50 2 16.3391 29.1592 -29.1552
154 1 49.1211 -5.61116 44.0647
238 1 16.3604 30.0743 38.5733
155 2 48.7216 -6.56807 43.5448
156 2 49.5206 -4.65425 44.5846
20 2 36.4372 24.7289 11.1141
296 2 8.74355 -46.6751 17.8227
527 2 17.8734 24.8283 15.6553
225 2 14.2164 -17.9486 12.3447
384 2 12.2223 18.4597 -18.3697
526 1 16.9939 24.4451 15.0031
135 2 16.3119 -11.2602 10.5596
133 1 16.2659 -10.5178 11.4496
528 2 16.1145 24.0618 14.3509
134 2 16.2199 -9.7753 12.3397
200 2 11.3966 -17.1156 13.5542
187 1 37.5546 -0.994312 17.3634
267 2 43.9774 29.9459 15.5792
189 2 37.708 -0.215197 16.5178
265 1 43.2119 29.8671 16.4471
129 2 41.8738 -2.93533 45.7067
128 2 42.9701 -1.32125 46.9618
127 1 42.4219 -2.12829 46.3342
37 1 1.45914 -6.14991 16.133
39 2 2.61472 -6.04925 16.1236
38 2 0.303553 -6.25057 16.1424
266 2 42.4464 29.7883 17.3151
89 2 37.3512 -5.64462 45.7017
88 1 37.5198 -6.6328 45.118
9 2 50.3028 29.1429 17.6112
51 2 15.8559 29.4217 -26.9013
7 1 49.2491 29.4867 17.9532
445 1 6.01881 21.4792 -12.5889
447 2 6.05874 21.9241 -11.5184
307 1 3.52186 59.9261 54.5367
446 2 5.97888 21.0344 -13.6595
309 2 2.49124 60.1225 55.0315
297 2 7.53593 -47.4069 19.6635
295 1 8.13974 -47.041 18.7431
308 2 4.55249 59.7296 54.0419
332 2 44.6963 21.1943 18.0796
422 2 15.9478 -11.007 18.8931
509 2 88.7935 -52.7928 -47.1166
357 2 9.95757 -10.6404 22.9581
355 1 10.8891 -10.0385 22.6181
356 2 11.8207 -9.43665 22.2782
325 1 16.4943 22.0971 -14.1475
327 2 15.7812 22.563 -13.36
326 2 17.2074 21.6313 -14.9349
341 2 -21.7345 -14.0533 19.1613
340 1 -22.3658 -13.0805 19.1358
342 2 -22.9971 -12.1076 19.1104
421 1 16.059 -10.0012 19.4602
333 2 46.9759 21.2701 18.5041
331 1 45.8361 21.2322 18.2918
57 2 88.7048 -12.6678 -46.1148
508 1 89.7344 -53.0535 -46.4902
55 1 89.1267 -13.3211 -45.2541
561 2 37.1937 -40.6858 -13.2946
188 2 37.4011 -1.77343 18.209
559 1 36.0892 -40.3407 -13.2127
113 2 -35.2083 65.7164 -9.06807
98 2 0.286254 34.7076 25.6976
423 2 16.1702 -8.9954 20.0273
503 2 48.1603 -5.23842 -11.2045
476 2 13.8882 29.0809 26.5585
286 1 -19.1189 65.4957 22.9462
540 2 48.2717 -0.989889 57.1049
287 2 -18.6174 64.4621 23.107
8 2 48.1953 29.8305 18.2952
504 2 48.098 -3.22169 -12.3496
538 1 48.9629 -0.523557 57.9114
502 1 48.1292 -4.23006 -11.7771
539 2 49.654 -0.0572237 58.7179
475 1 14.0009 28.5603 25.528
288 2 -19.6203 66.5293 22.7854
477 2 14.1136 28.0397 24.4975
318 2 44.702 25.8571 31.3371
316 1 43.5845 25.6274 31.1274
317 2 42.4669 25.3977 30.9178
82 1 -30.8509 -17.6021 28.1072
83 2 -29.9442 -17.2883 27.4552
369 2 39.3534 -9.7755 -1.77218
367 1 39.1047 -10.1315 -0.696504
84 2 -31.7576 -17.9158 28.7591
34 1 49.46 59.5382 35.323
35 2 48.3773 59.952 35.2762
36 2 50.5427 59.1244 35.3699
231 2 11.3098 60.4186 -6.78592
229 1 12.3258 60.3962 -7.34529
230 2 13.3418 60.3739 -7.90466
56 2 89.5485 -13.9744 -44.3934
595 1 52.0586 18.2105 30.0776
597 2 53.1121 18.6889 30.1606
12 2 6.67567 -1.36612 31.614
10 1 7.69815 -0.982028 32.0046
11 2 8.72062 -0.597935 32.3953
405 2 36.7981 -4.20772 -5.81717
581 2 36.8939 33.0597 34.8406
173 2 5.96082 -4.67974 28.9471
174 2 3.82086 -3.95027 28.4266
114 2 -34.6158 63.5039 -8.69923
172 1 4.89084 -4.315 28.6869
112 1 -34.912 64.6102 -8.88365
547 1 8.5415 -3.80557 -2.43115
235 1 37.62 29.0574 32.87
236 2 37.9521 30.128 32.5712
403 1 37.5731 -3.53936 -5.27112
404 2 38.3482 -2.871 -4.72507
580 1 36.6594 34.1403 34.4898
237 2 37.2879 27.9869 33.1688
549 2 7.53136 -3.26363 -2.25361
582 2 36.425 35.2208 34.1391
518 2 12.864 29.3286 -4.32619
548 2 9.55164 -4.34752 -2.60868
137 2 53.0116 28.1827 34.8692
344 2 -23.865 32.6136 27.6711
345 2 -25.5508 33.5367 28.9704
343 1 -24.7079 33.0752 28.3207
519 2 14.0219 27.382 -3.82395
136 1 53.6244 29.115 34.5513
517 1 13.4429 28.3553 -4.07507
278 2 23.2474 3.98578 39.4975
277 1 22.6284 4.64191 40.2268
279 2 22.0094 5.29804 40.9562
226 1 -9.43487 7.65638 43.9611
227 2 -9.17511 7.51719 42.8392
488 2 56.9732 3.0726 43.5786
487 1 56.4827 4.1236 43.5971
489 2 55.9921 5.1746 43.6156
386 2 28.971 39.2765 -30.0388
387 2 27.8535 40.0044 -28.1404
385 1 28.4123 39.6404 -29.0896
151 1 27.8715 6.13238 1.36344
153 2 27.5123 7.05688 0.761909
451 1 -3.56328 7.92549 42.2975
555 2 -5.58049 44.3582 36.9209
152 2 28.2307 5.20787 1.96498
453 2 -3.57594 6.89803 41.7592
452 2 -3.55063 8.95295 42.8358
5 2 24.4213 17.6813 8.97173
553 1 -5.29503 45.2056 36.182
351 2 27.0702 13.4499 0.348349
350 2 28.2153 15.3557 1.01096
349 1 27.6427 14.4028 0.679655
228 2 -9.69463 7.79557 45.083
205 1 21.0285 -27.8669 52.331
206 2 20.0196 -27.8334 51.7594
254 2 61.9659 6.99083 16.6418
253 1 61.8075 8.13867 16.5872
207 2 22.0374 -27.9003 52.9025
166 1 -6.93294 37.9327 47.422
183 2 -6.43304 8.91169 46.7085
181 1 -6.96112 8.7518 47.7288
182 2 -7.4892 8.59191 48.7492
533 2 -2.10881 -28.4589 53.3301
167 2 -7.35558 39.013 47.414
121 1 -5.69245 7.72309 17.3012
123 2 -6.71192 7.34226 16.8996
591 2 -1.2311 36.5704 10.1686
168 2 -6.51031 36.8525 47.4299
122 2 -4.67299 8.10392 17.7027
13 1 19.8785 12.329 17.3916
14 2 18.9495 11.6589 17.2084
449 2 25.7624 47.4285 48.1126
448 1 25.3916 46.6729 48.9108
450 2 25.0209 45.9172 49.709
119 2 22.1953 53.4182 13.216
480 2 -13.7705 -22.8188 50.9693
478 1 -13.6152 -21.7233 51.3177
479 2 -13.4598 -20.6278 51.666
118 1 21.1373 53.8213 12.9636
251 2 25.072 52.9795 -22.3275
250 1 24.8018 53.9804 -21.8072
6 2 25.9823 17.707 10.6879
4 1 25.2018 17.6941 9.82979
255 2 61.6492 9.28652 16.5326
15 2 20.8074 12.9992 17.5748
587 2 26.7528 12.6868 -19.2995
588 2 27.5505 12.0141 -21.3716
586 1 27.1517 12.3504 -20.3356
244 1 32.1433 17.555 9.84442
420 2 67.6839 47.1422 51.6529
245 2 32.9007 16.677 9.81084
484 1 70.0028 -19.529 15.0735
419 2 66.852 48.7176 50.1667
485 2 70.3018 -18.7791 14.2405
516 2 -2.26808 45.0064 49.9138
514 1 -1.50018 45.5353 50.6039
515 2 -0.73228 46.0642 51.2939
486 2 69.7039 -20.2788 15.9065
335 2 33.7522 12.5071 9.4676
418 1 67.2679 47.9299 50.9098
336 2 34.1819 11.8428 11.6485
376 1 27.5463 17.0489 16.9035
377 2 27.4707 16.0448 17.4794
334 1 33.967 12.1749 10.5581
506 2 -1.28862 53.4441 17.9634
125 2 -16.9642 38.0359 -13.3969
126 2 -17.7276 36.6527 -15.0958
124 1 -17.3459 37.3443 -14.2463
195 2 25.5292 36.2562 20.1462
194 2 24.5145 36.6727 22.1905
193 1 25.0218 36.4644 21.1683
102 2 -42.9852 3.94167 22.3584
210 2 -6.31015 41.303 19.3972
474 2 -4.88851 2.14796 -13.6913
305 2 -6.88991 37.5083 -15.8802
208 1 -6.42716 42.0443 20.2818
190 1 33.5217 3.87679 -11.1366
302 2 34.9757 42.5141 57.3415
191 2 33.9011 3.17051 -10.2983
209 2 -6.54416 42.7855 21.1663
192 2 33.1423 4.58306 -11.975
101 2 -42.078 4.2254 24.4748
100 1 -42.5316 4.08353 23.4166
473 2 -2.65753 2.54851 -14.186
472 1 -3.77302 2.34823 -13.9386
301 1 35.4943 42.8165 58.334
304 1 -7.46623 36.7527 -15.215
532 1 -1.84202 -27.7293 54.1916
3 2 -0.821886 -27.7909 -9.02218
204 2 -11.1715 16.813 25.3181
203 2 -12.0976 15.3249 23.7982
379 1 23.1764 13.7956 20.6256
381 2 22.3633 14.3971 20.0573
380 2 23.9894 13.1942 21.1938
202 1 -11.6346 16.069 24.5582
578 2 26.8464 14.0935 21.4102
140 2 26.5391 10.3107 -9.2429
273 2 32.1691 -22.9418 24.2884
271 1 32.0523 -22.2925 23.3342
534 2 -1.57523 -26.9998 55.0531
505 1 -1.55257 52.844 18.9203
141 2 27.6419 12.2701 -9.8146
579 2 28.4124 14.1473 19.6993
322 1 -5.50322 10.8487 -15.1312
324 2 -6.09197 10.6817 -16.1166
577 1 27.6294 14.1204 20.5547
272 2 31.9355 -21.6432 22.3801
148 1 -8.29774 -19.6084 -10.0311
150 2 -8.40643 -19.495 -11.1804
323 2 -4.91448 11.0157 -14.1457
507 2 -1.81652 52.2439 19.8773
139 1 27.0905 11.2904 -9.52875
542 2 35.9524 12.0051 -9.64579
312 2 20.1149 39.8136 31.0675
310 1 20.66 38.8327 31.3614
311 2 21.2051 37.8518 31.6552
584 2 25.101 39.5464 64.7456
583 1 24.1665 38.9481 65.0838
395 2 -14.8182 79.5385 31.2062
394 1 -14.4191 80.4786 31.7562
67 1 56.8244 41.2622 64.0301
158 2 19.5884 0.773736 -6.49308
585 2 23.232 38.3499 65.422
157 1 20.2181 0.571443 -7.44604
159 2 20.8479 0.369151 -8.39901
68 2 56.3961 40.1877 63.9435
69 2 57.2527 42.3368 64.1167
1 1 -0.29213 -27.9068 -7.99674
396 2 -14.02 81.4187 32.3062
470 2 -13.9186 14.6532 31.8101
469 1 -13.7766 13.5354 32.0856
471 2 -13.6347 12.4176 32.3612
370 1 55.8123 16.0544 -6.78183
371 2 56.7093 16.5251 -6.21663
372 2 54.9153 15.5838 -7.34702
497 2 -15.8609 9.99539 -7.03631
393 2 -17.3986 13.0986 -37.9907
496 1 -16.8483 10.4679 -6.65238
438 2 25.0564 16.6405 -4.03203
436 1 24.2866 16.9914 -3.23835
437 2 23.5169 17.3423 -2.44468
391 1 -17.8185 12.5719 -37.0463
498 2 -17.8357 10.9405 -6.26846
117 2 -39.5349 -22.4267 27.8123
234 2 -5.59007 48.3326 -3.53623
116 2 -41.5655 -23.5459 27.7318
543 2 34.5702 10.9942 -8.08054
115 1 -40.5502 -22.9863 27.7721
149 2 -8.18904 -19.7218 -8.88179
433 1 -2.54804 -21.5257 30.6367
443 2 32.5192 45.4305 -5.77323
232 1 -6.25189 47.804 -4.32879
442 1 33.4693 46.0428 -5.51233
435 2 -2.99198 -22.4449 31.1876
233 2 -6.91372 47.2754 -5.12135
444 2 34.4193 46.6552 -5.25143
434 2 -2.1041 -20.6064 30.0858
554 2 -5.00956 46.053 35.4431
541 1 35.2613 11.4997 -8.86316
93 2 65.9214 58.1813 44.9696
91 1 66.9373 58.4285 44.4672
92 2 67.9532 58.6757 43.9648
222 2 55.6417 -1.27959 44.0179
220 1 54.9525 -2.18891 43.8088
221 2 54.2632 -3.09824 43.5997
27 2 30.3969 63.0846 43.4454
25 1 30.5091 63.9311 44.2306
590 2 -0.33467 34.9957 8.71978
401 2 -2.95939 -3.57537 8.25318
352 1 67.6375 28.8494 37.2339
330 2 28.5021 32.4849 39.9477
397 1 64.9321 31.6415 -35.9419
402 2 -3.25539 -1.98733 6.58797
400 1 -3.10739 -2.78135 7.42057
329 2 30.4084 31.3076 40.5495
354 2 68.0726 28.2146 36.3659
328 1 29.4552 31.8963 40.2486
353 2 67.2025 29.4842 38.1018
399 2 63.7938 31.7978 -35.7827
120 2 20.0792 54.2244 12.7112
252 2 24.5316 54.9813 -21.2869
179 2 -9.14499 24.4587 50.4949
411 2 -9.67544 20.3173 11.9968
180 2 -9.02642 25.3594 52.6296
178 1 -9.08571 24.909 51.5623
431 2 -49.2468 24.44 -18.0611
66 2 27.8068 21.7178 16.1221
599 2 67.4263 22.4436 50.3426
410 2 -7.51863 20.6378 12.7892
409 1 -8.59703 20.4776 12.393
600 2 67.5682 20.1649 49.9305
598 1 67.4973 21.3042 50.1365
65 2 29.7251 20.4539 16.4462
246 2 31.386 18.433 9.878
21 2 34.6837 24.739 9.59506
171 2 33.6525 -9.28393 -22.4526
378 2 27.6219 18.053 16.3276
19 1 35.5604 24.734 10.3546
64 1 28.7659 21.0858 16.2841
110 2 22.7585 -1.30753 52.1374
59 2 -12.937 -7.8719 14.7142
109 1 22.2992 -1.07026 51.0989
60 2 -14.7805 -8.70735 13.5802
111 2 21.8399 -0.832984 50.0605
461 2 25.7792 -4.19217 17.2824
460 1 24.8038 -3.78946 17.7642
58 1 -13.8588 -8.28962 14.1472
413 2 -11.5016 35.3079 83.4635
414 2 -10.4484 33.4822 84.433
412 1 -10.975 34.3951 83.9482
243 2 -2.22832 30.7492 48.9692
241 1 -3.33684 30.4216 48.8721
169 1 33.4678 -8.69422 -21.4709
170 2 33.2831 -8.10452 -20.4892
132 2 -5.72608 31.4568 15.9165
537 2 -8.61489 30.7716 51.0784
131 2 -4.23658 33.1702 15.439
535 1 -7.9025 29.8571 51.0366
130 1 -4.98133 32.3135 15.6777
536 2 -7.19012 28.9426 50.9948
242 2 -4.44536 30.0939 48.775
589 1 -0.782884 35.783 9.4442
26 2 30.6213 64.7775 45.0158
521 2 21.2968 21.0378 62.1055
574 1 20.257 -16.3383 129.979
575 2 21.2632 -16.0763 129.465
544 1 19.4018 24.5007 23.2891
510 2 90.6753 -53.3142 -45.8638
546 2 18.6383 24.7816 22.4622
576 2 19.2508 -16.6002 130.493
432 2 -48.0898 26.4406 -17.8579
430 1 -48.6683 25.4403 -17.9595
545 2 20.1654 24.2198 24.1159
164 2 31.7385 -11.7044 24.1882
483 2 -3.68925 21.6039 19.4724
482 2 -2.32547 19.8763 20.206
63 2 29.895 -16.8399 55.4865
61 1 29.3981 -16.2675 56.3645
62 2 28.9011 -15.6951 57.2426
481 1 -3.00736 20.7401 19.8392
163 1 31.3485 -12.1316 25.1937
165 2 30.9584 -12.5588 26.1992
212 2 26.2168 -8.47877 24.9605
211 1 26.353 -7.99096 26.0041
468 2 -9.41183 28.0093 -52.7634
462 2 23.8285 -3.38675 18.246
142 1 59.835 32.9705 -12.6748
143 2 60.9274 33.2878 -12.9022
144 2 58.7427 32.6532 -12.4473
145 1 66.4196 33.0711 55.677
269 2 32.9554 34.2155 -11.6481
560 2 34.9848 -39.9956 -13.1309
146 2 66.3478 32.5608 54.6378
97 1 -0.712109 34.8525 26.2702
466 1 -8.72053 28.8376 -53.1895
467 2 -8.02923 29.666 -53.6156
306 2 -8.04256 35.9971 -14.5498
99 2 -1.71047 34.9974 26.8428
270 2 32.4993 32.082 -10.8591
268 1 32.7274 33.1488 -11.2536
147 2 66.4914 33.5815 56.7162
315 2 25.5842 54.877 30.4902
314 2 26.7736 55.4342 28.5778
313 1 26.1789 55.1556 29.534
522 2 21.6592 20.1606 64.2225
520 1 21.478 20.5992 63.164
513 2 27.8563 59.2934 -7.15666
511 1 27.4837 59.9388 -8.04565
258 2 -5.80512 25.1499 -0.752211
257 2 -3.73798 25.1836 -1.80493
256 1 -4.77155 25.1668 -1.27857
512 2 27.1112 60.5841 -8.93464
407 2 24.0569 27.9844 -6.61378
406 1 23.2828 27.5368 -5.87485
408 2 22.5086 27.0892 -5.13591
215 2 19.6384 65.6245 67.5567
214 1 19.8017 64.9753 66.6093
216 2 19.9649 64.3262 65.6619
162 2 56.1605 33.1545 -5.0876
18 2 24.6714 33.9086 -36.9088
16 1 24.3807 34.1396 -38.0077
17 2 24.0901 34.3706 -39.1067
161 2 56.6695 33.8045 -2.91944
160 1 56.415 33.4795 -4.00352
138 2 54.2372 30.0472 34.2334
213 2 26.4891 -7.50315 27.0477
76 1 -3.20345 33.2643 34.897
42 2 -8.45697 35.2009 -4.02754
106 1 34.1167 32.2539 -7.44175
41 2 -8.7867 33.9334 -2.11258
107 2 33.3081 32.51 -6.65039
40 1 -8.62183 34.5672 -3.07006
290 2 28.0036 67.0548 -6.14528
289 1 28.3036 65.9367 -6.07135
108 2 34.9252 31.9978 -8.23311
77 2 -4.0192 34.0805 34.779
78 2 -2.38769 32.448 35.015
291 2 28.6036 64.8186 -5.99742
398 2 66.0705 31.4852 -36.1011
ITEM: TIMESTEP
10000
ITEM: NUMBER OF ATOMS
600
ITEM: BOX BOUNDS pp pp pp
0.0000000000000000e+00 3.6000000000000000e+01
0.0000000000000000e+00 3.6000000000000000e+01
0.0000000000000000e+00 3.6000000000000000e+01
ITEM: ATOMS id type xu yu zu
6 2 0.0339488 8.12302 7.7332
553 1 17.0466 36.7677 39.8834
413 2 -27.7343 44.5247 74.121
231 2 1.0623 50.7898 1.46557
155 2 45.1528 10.2744 44.0331
240 2 16.7967 52.7322 39.225
229 1 2.11005 50.6609 0.984736
412 1 -27.7841 45.6447 74.4188
4 1 0.664176 7.58198 6.92345
555 2 16.1667 36.6549 39.1359
172 1 7.69439 1.84335 37.6846
174 2 8.56379 1.42825 38.3306
36 2 47.2673 72.2702 36.2373
430 1 -61.0521 38.4183 4.95799
395 2 -32.0449 82.9525 43.6285
431 2 -61.6848 38.227 5.91125
560 2 42.2366 -35.221 -31.0361
441 2 3.9117 13.563 41.6508
234 2 1.52955 36.3206 6.55644
175 1 42.0187 4.71418 3.31113
177 2 42.63 3.916 3.88984
48 2 42.6559 53.6013 39.3241
414 2 -27.834 46.7648 74.7167
176 2 41.4075 5.51236 2.73243
432 2 -60.4194 38.6096 4.00473
5 2 1.2944 7.04095 6.1137
440 2 4.69893 11.9644 40.1652
173 2 6.82498 2.25844 37.0385
439 1 4.30532 12.7637 40.908
450 2 42.049 51.5378 44.446
156 2 43.2652 10.15 42.69
154 1 44.209 10.2122 43.3616
239 2 16.0806 53.8118 37.3005
238 1 16.4386 53.272 38.2628
394 1 -31.8134 83.7766 44.4113
501 2 16.5542 0.389702 44.1023
554 2 17.9264 36.8804 40.631
230 2 3.1578 50.532 0.5039
562 1 9.04176 8.9649 16.0383
15 2 15.7442 11.1007 11.9958
129 2 41.7413 5.54835 53.5476
367 1 46.0973 -27.3884 12.5285
102 2 -27.8761 5.09347 13.6091
100 1 -28.9205 4.70427 13.2876
101 2 -29.9649 4.31508 12.9661
505 1 13.3087 49.9425 9.33195
444 2 37.6398 40.3927 12.0812
563 2 10.0494 9.50783 16.2265
182 2 15.1479 3.47524 46.9189
181 1 15.0556 4.6062 46.6781
222 2 47.3468 11.6981 49.2772
183 2 14.9632 5.73717 46.4373
442 1 37.8932 40.9767 11.1115
507 2 14.3423 49.4523 9.13947
241 1 -18.2613 17.1123 47.7124
268 1 45.4484 38.8341 -18.3969
368 2 44.9797 -27.2505 12.8072
270 2 46.1007 38.9698 -19.3465
543 2 38.0172 15.4699 13.0844
506 2 12.2751 50.4327 9.52443
541 1 37.9711 14.5716 12.352
369 2 47.2148 -27.5263 12.2498
251 2 39.1537 47.3737 -19.5977
564 2 8.03409 8.42198 15.8501
14 2 16.9612 11.8447 10.1661
74 2 -32.7546 -34.055 53.4104
242 2 -18.7133 17.4426 48.7284
396 2 -31.5819 84.6008 45.1941
252 2 37.7366 47.7644 -21.3926
220 1 48.0486 12.1855 48.4926
448 1 41.4323 52.17 45.1981
13 1 16.3527 11.4727 11.0809
443 2 38.1466 41.5607 10.1418
542 2 37.925 13.6733 11.6195
449 2 40.8156 52.8022 45.9501
221 2 48.7504 12.6729 47.7081
250 1 38.4451 47.5691 -20.4951
73 1 -32.4902 -33.2012 54.1497
487 1 40.4956 2.94478 23.3094
97 1 4.32455 14.6034 26.0556
403 1 38.2468 0.783926 -15.4056
405 2 38.7136 1.54144 -14.6614
20 2 39.214 4.79348 26.0539
128 2 43.1862 6.07737 55.2839
127 1 42.4637 5.81286 54.4157
283 1 1.15545 -18.8545 90.9541
19 1 39.6119 3.94266 26.7346
404 2 37.78 0.0264133 -16.1498
72 2 10.5861 -18.8578 24.6103
489 2 39.8924 2.42325 24.1519
488 2 41.0989 3.46632 22.467
226 1 -26.6888 5.05393 58.8732
28 1 11.1834 6.26901 26.0906
426 2 50.0385 79.6122 23.2208
325 1 13.1599 7.77393 -17.768
83 2 -34.4519 -34.46 26.4217
291 2 15.4444 79.8342 -9.95093
167 2 13.7342 38.4819 20.4376
319 1 11.4584 0.339197 -15.2717
212 2 45.6441 12.105 26.2276
166 1 14.2244 38.6909 21.4679
29 2 11.6477 6.22017 25.0286
99 2 4.93145 14.7068 25.0724
289 1 16.5654 79.5469 -10.0301
514 1 1.48386 47.9864 60.6298
425 2 48.6075 78.4301 21.8289
320 2 10.8597 1.00004 -16.0136
168 2 14.7146 38.8999 22.4982
227 2 -26.4578 4.41632 57.9321
355 1 8.77996 -21.4338 21.5418
424 1 49.323 79.0212 22.5248
211 1 45.2618 11.414 25.3779
50 2 38.2902 16.4616 -13.3031
147 2 75.9546 46.4429 59.9211
145 1 75.7645 46.0183 58.8585
515 2 0.944949 46.9657 60.7458
521 2 7.80937 17.1988 55.4818
49 1 38.5577 15.4176 -13.7322
51 2 38.8253 14.3736 -14.1614
520 1 6.89534 17.7169 55.9734
146 2 75.5743 45.5936 57.7959
290 2 17.6865 79.2596 -10.1093
228 2 -26.9199 5.69153 59.8143
357 2 8.04103 -21.5878 20.661
149 2 -23.6867 -25.6141 -10.6459
148 1 -22.8301 -25.5154 -11.4219
150 2 -21.9735 -25.4168 -12.1978
356 2 9.5189 -21.2798 22.4226
75 2 -32.2258 -32.3473 54.889
572 2 -18.5374 87.4473 -10.1489
213 2 44.8794 10.7231 24.5282
326 2 13.8726 8.66751 -17.5699
269 2 44.7961 38.6984 -17.4473
285 2 1.81376 -19.7107 91.3774
70 1 10.4489 -18.3225 25.6303
312 2 17.4192 44.1844 23.2443
516 2 2.02277 49.007 60.5138
225 2 8.1373 -20.6817 26.8785
82 1 -33.7517 -35.21 26.9629
327 2 12.4473 6.88034 -17.9662
171 2 36.0731 -25.0181 -5.61823
556 1 10.8245 -21.2676 34.277
84 2 -33.0515 -35.96 27.504
201 2 4.52764 -33.3113 33.6151
389 2 15.0813 17.5867 28.2533
169 1 36.836 -25.7435 -5.13092
199 1 3.69421 -33.1533 34.4063
35 2 47.1602 74.0074 34.7033
200 2 2.86078 -32.9952 35.1976
170 2 37.5989 -26.4688 -4.64362
535 1 2.57545 17.625 33.3303
557 2 11.3957 -20.6923 35.1066
498 2 -24.2852 17.6468 -6.28326
558 2 10.2532 -21.8429 33.4474
581 2 48.3112 38.8126 29.6852
33 2 8.36342 73.1277 -2.5093
224 2 6.18214 -19.7172 27.672
537 2 1.99248 16.8942 34.0171
21 2 40.0098 3.09184 27.4153
401 2 0.334276 1.17395 -1.73976
31 1 8.8481 73.726 -3.37687
32 2 9.33279 74.3243 -4.24444
160 1 51.8682 41.5436 -6.68223
162 2 52.5881 42.2536 -6.11366
161 2 51.1483 40.8336 -7.2508
580 1 47.5092 38.739 28.8504
582 2 46.7071 38.6654 28.0156
34 1 47.2137 73.1388 35.4703
223 1 7.15972 -20.1995 27.2753
30 2 10.7192 6.31785 27.1525
98 2 3.71765 14.5 27.0387
591 2 5.66354 18.5965 7.2642
363 2 0.359206 -13.2168 1.94501
548 2 44.0302 -11.9022 0.147978
478 1 -33.1655 -10.8467 36.7788
479 2 -33.6134 -10.9482 37.8441
589 1 5.3654 19.7172 7.23615
547 1 42.9732 -12.3741 0.0724629
375 2 13.1276 57.8841 3.89953
370 1 51.4921 19.4642 4.49327
372 2 51.9948 19.7383 5.50212
362 2 1.56612 -15.0499 2.69719
233 2 0.227381 34.7928 7.71948
373 1 13.4983 58.9807 3.82493
371 2 50.9894 19.1901 3.48442
374 2 13.869 60.0774 3.75034
232 1 0.878465 35.5567 7.13796
427 1 3.94953 33.2138 8.31612
429 2 2.94443 33.6292 7.91258
518 2 6.96296 26.6276 2.16346
422 2 14.4149 -4.7914 3.96669
119 2 13.8674 68.5551 0.760605
421 1 13.9689 -5.8341 4.21049
423 2 13.5229 -6.87679 4.45429
499 1 16.057 -0.630852 44.3405
46 1 42.8351 54.6215 39.8462
517 1 7.3442 26.6037 3.25876
559 1 41.9812 -36.2437 -30.5519
500 2 15.5597 -1.65141 44.5788
428 2 4.95462 32.7984 8.71967
109 1 17.7638 -3.31629 38.0349
519 2 7.72544 26.5797 4.35406
361 1 0.962661 -14.1334 2.3211
47 2 43.0142 55.6418 40.3683
561 2 41.7258 -37.2664 -30.0677
590 2 5.06727 20.8379 7.2081
111 2 17.3189 -3.6355 39.0575
66 2 43.2058 31.4663 9.41608
65 2 41.9923 31.3707 11.3911
64 1 42.5991 31.4185 10.4036
351 2 2.08788 23.9155 14.1092
349 1 3.24242 23.8046 14.0912
105 2 43.0934 27.3924 17.1495
353 2 81.3687 19.4608 53.7202
350 2 4.39697 23.6937 14.0731
406 1 4.78218 18.3077 -19.5929
408 2 5.80061 18.0686 -19.0917
407 2 3.76374 18.5468 -20.0941
104 2 42.3954 26.1902 15.2921
16 1 8.72025 27.0159 -23.0175
103 1 42.7444 26.7913 16.2208
18 2 8.76384 25.9889 -23.5552
17 2 8.67667 28.0428 -22.4799
235 1 16.6759 -6.41123 16.803
342 2 -26.8412 -12.4974 15.1593
378 2 15.4302 23.7464 16.0813
340 1 -27.1031 -13.3371 14.403
376 1 14.7334 23.2024 15.3301
377 2 14.0367 22.6585 14.5789
352 1 82.0683 20.3829 53.7972
38 2 5.62493 -6.19437 14.1911
56 2 83.3909 -7.8272 -56.749
526 1 17.1012 25.8579 15.6025
298 1 40.0542 -12.3899 -19.0048
300 2 39.7916 -11.297 -19.2916
57 2 85.2752 -6.53585 -56.3437
55 1 84.3331 -7.18152 -56.5464
89 2 44.2966 -1.84225 15.0696
90 2 44.4178 -0.535443 13.1565
527 2 16.3255 26.5098 15.0378
341 2 -27.365 -14.1767 13.6467
37 1 4.64738 -5.68046 13.8363
237 2 16.919 -7.33156 17.4659
473 2 6.32882 -0.443115 -18.8921
88 1 44.3572 -1.18885 14.1131
354 2 82.7679 21.305 53.8742
39 2 3.66984 -5.16654 13.4815
236 2 16.4328 -5.4909 16.14
299 2 40.3168 -13.4828 -18.7179
528 2 17.8768 25.2059 16.1672
266 2 43.792 22.1577 18.0373
317 2 39.617 26.2306 25.2168
316 1 40.2154 26.7744 24.385
267 2 43.6532 24.0904 19.3132
265 1 43.7226 23.124 18.6753
318 2 40.8138 27.3181 23.5532
122 2 4.40564 21.347 26.2016
565 1 3.25517 19.1581 22.3231
566 2 2.48576 19.1825 21.4553
567 2 4.02457 19.1336 23.1909
384 2 16.0094 24.8714 -9.46371
360 2 11.7157 21.496 24.7037
358 1 12.169 20.4289 24.7437
359 2 12.6222 19.3619 24.7837
348 2 10.6108 -38.7031 -52.0475
552 2 8.16424 66.7991 -17.3835
474 2 5.59173 -0.381555 -16.6932
576 2 13.0767 -9.48913 128.345
551 2 10.0669 65.4733 -17.4509
455 2 5.36631 -1.90029 -11.4397
71 2 10.3117 -17.7873 26.6502
550 1 9.11557 66.1362 -17.4172
383 2 16.5369 22.7808 -10.3202
594 2 47.6796 62.1164 -13.035
382 1 16.2731 23.8261 -9.89197
574 1 13.0834 -10.0553 127.332
25 1 37.1861 64.7629 26.8748
26 2 37.8089 65.2006 25.9996
346 1 11.5394 -39.2237 -51.5869
592 1 48.4898 61.3251 -12.7842
593 2 49.3001 60.5337 -12.5333
364 1 75.6669 30.969 56.4406
345 2 -26.9538 27.5833 25.6822
347 2 12.4681 -39.7444 -51.1262
456 2 4.15361 -1.5453 -13.3854
284 2 0.497144 -17.9983 90.5309
343 1 -27.8646 27.6377 26.3986
321 2 12.0571 -0.321643 -14.5298
297 2 14.5587 -41.5051 22.2913
522 2 5.98131 18.2351 56.4649
472 1 5.96028 -0.412336 -17.7926
366 2 74.8545 31.5809 56.9984
454 1 4.75996 -1.7228 -12.4126
365 2 76.4793 30.357 55.8829
295 1 14.3161 -42.0228 21.282
296 2 14.0736 -42.5404 20.2727
575 2 13.0901 -10.6214 126.32
121 1 3.51126 20.8055 26.704
569 2 12.0643 -40.0514 -2.76629
570 2 12.1142 -40.7038 -4.99213
463 1 42.2169 27.2955 -1.93452
465 2 41.1258 27.3123 -2.32804
464 2 43.308 27.2786 -1.541
483 2 5.11867 25.3175 29.6494
496 1 -24.8282 18.2732 -5.47179
459 2 5.66211 56.294 -6.65138
123 2 2.61687 20.264 27.2065
497 2 -25.3712 18.8995 -4.66031
481 1 4.49278 26.2821 29.496
388 1 14.9267 18.271 29.1771
390 2 14.7722 18.9553 30.101
476 2 13.1223 20.5191 27.9115
475 1 13.5443 21.5764 28.134
477 2 13.9663 22.6338 28.3564
292 1 16.9235 25.0828 -5.95964
337 1 4.26872 -38.778 -0.644926
120 2 13.9943 69.8213 -1.17922
482 2 3.86689 27.2466 29.3426
568 1 12.0893 -40.3776 -3.87921
294 2 16.2721 25.8489 -5.38144
457 1 5.71932 55.2994 -6.05728
118 1 13.9309 69.1882 -0.20931
144 2 42.4561 32.7444 -5.9164
142 1 43.5478 32.7061 -6.30665
143 2 44.6396 32.6677 -6.6969
600 2 73.9249 29.3427 66.3519
598 1 74.5051 30.2274 66.8276
599 2 75.0854 31.1121 67.3032
338 2 3.1995 -39.0139 -0.261942
339 2 5.33795 -38.542 -1.02791
536 2 3.15843 18.3558 32.6435
27 2 36.5633 64.3251 27.7501
549 2 41.9162 -12.846 -0.00305178
293 2 17.5749 24.3167 -6.53783
458 2 5.77653 54.3047 -5.46319
480 2 -32.7176 -10.7451 35.7136
344 2 -28.7754 27.6922 27.1149
332 2 58.1379 40.5595 4.43038
331 1 57.9649 41.5615 3.87208
333 2 57.7919 42.5635 3.31377
409 1 -4.35479 6.44393 7.71574
141 2 29.582 17.764 1.49421
59 2 -12.2954 -18.0238 7.3304
58 1 -12.1642 -18.96 6.65822
418 1 62.4845 37.4615 41.8023
207 2 -7.05574 -28.4103 43.5525
139 1 30.4784 17.9713 0.787701
410 2 -4.33287 6.3099 6.56372
280 1 19.6897 3.83002 77.9088
206 2 -9.00921 -28.6542 42.325
262 1 29.8623 12.0083 39.9472
416 2 22.0587 4.25023 8.11578
281 2 19.8602 2.78702 77.4306
205 1 -8.03248 -28.5323 42.9387
420 2 63.3773 37.0745 41.1709
264 2 29.127 12.3287 40.7852
263 2 30.5977 11.688 39.1092
419 2 61.5917 37.8484 42.4337
531 2 19.336 17.7999 6.83356
282 2 19.5192 4.87302 78.3871
218 2 -11.4827 0.271943 74.3611
60 2 -12.033 -19.8962 5.98603
314 2 20.7979 53.9349 38.1363
415 1 21.7902 5.18892 8.74215
411 2 -4.3767 6.57795 8.86776
243 2 -17.8093 16.782 46.6964
544 1 25.3994 37.0306 16.1537
584 2 18.1451 41.6265 46.2132
546 2 26.0395 36.7057 15.2426
491 2 29.3776 -22.7916 53.2822
585 2 19.4159 42.8928 47.6842
583 1 18.7805 42.2596 46.9487
545 2 24.7592 37.3556 17.0649