ITEM: TIMESTEP
0
ITEM: NUMBER OF ATOMS
300
ITEM: BOX BOUNDS pp pp pp
0.0000000000000000e+00 3.6000000000000000e+01
0.0000000000000000e+00 3.6000000000000000e+01
0.0000000000000000e+00 3.6000000000000000e+01
ITEM: ATOMS id type xu yu zu
99 2 5.40561 40.4366 2.54723
97 1 5.92159 40.2131 3.56184
98 2 6.43757 39.9896 4.57644
146 2 43.8214 41.9795 -29.4801
145 1 44.5599 41.1695 -29.1002
190 1 4.1398 37.6201 0.292596
191 2 5.08475 37.9604 0.872967
147 2 45.2983 40.3596 -28.7204
184 1 15.4075 37.8936 8.71934
185 2 14.3112 38.2627 8.80574
186 2 16.5038 37.5245 8.63294
261 2 78.1543 -24.9953 42.3574
259 1 77.2073 -25.6226 42.5925
260 2 76.2603 -26.2498 42.8276
272 2 -25.7755 16.9534 38.485
127 1 52.9338 11.7294 40.5281
138 2 14.2698 -25.1225 43.4323
128 2 53.0267 11.4737 41.6558
136 1 14.0947 -24.5184 42.4576
129 2 52.8409 11.9852 39.4005
137 2 13.9197 -23.9143 41.4829
273 2 -24.2103 15.7729 37.2446
271 1 -24.9929 16.3632 37.8648
283 1 12.6702 17.796 7.8844
284 2 11.541 17.9965 7.71026
285 2 13.7994 17.5955 8.05854
94 1 2.50889 2.44682 10.5309
96 2 2.81164 2.81185 11.5896
95 2 2.20615 2.08179 9.47231
67 1 84.8624 2.88909 84.7363
68 2 85.7064 2.09448 84.7792
69 2 84.0184 3.68369 84.6934
222 2 -26.8583 42.6135 17.8707
90 2 41.7788 36.7589 60.1364
220 1 -25.8353 42.4799 18.4011
221 2 -24.8124 42.3464 18.9315
41 2 17.1495 1.6347 22.6321
40 1 17.7207 2.08884 21.7304
300 2 15.6996 15.4069 54.8526
176 2 -21.4711 -23.9055 20.5166
177 2 -22.7453 -23.7438 18.5846
299 2 14.5647 17.2606 54.0414
298 1 15.1322 16.3337 54.447
175 1 -22.1082 -23.8246 19.5506
125 2 41.0429 37.6562 27.7647
124 1 42.1431 38.0236 27.7522
192 2 3.19484 37.2797 -0.287773
126 2 43.2433 38.391 27.7398
70 1 12.225 39.2477 -2.7045
71 2 11.6929 39.4164 -1.68764
72 2 12.7571 39.079 -3.72137
249 2 43.0002 51.9257 -0.855924
248 2 41.7091 50.1324 -1.56261
247 1 42.3547 51.0291 -1.20927
153 2 12.4613 17.009 -2.32359
219 2 17.0852 15.9503 -4.85006
217 1 16.2249 16.6581 -4.52695
218 2 15.3646 17.366 -4.20384
7 1 41.1477 -11.892 40.2111
8 2 40.3976 -12.032 41.0848
9 2 41.8978 -11.752 39.3375
155 2 0.135559 25.7739 37.2667
154 1 1.02712 25.2844 37.8245
156 2 1.91868 24.7949 38.3822
174 2 -22.9775 23.6813 0.188965
240 2 17.165 -10.4855 39.0095
267 2 12.2879 -15.9566 4.47615
80 2 12.3562 59.8715 4.13666
79 1 11.96 60.5678 4.97566
81 2 11.5639 61.264 5.81466
265 1 12.665 -15.7418 5.55193
266 2 13.042 -15.527 6.62772
24 2 50.548 -50.1427 1.67289
22 1 50.7842 -50.2445 2.80401
23 2 51.0204 -50.3463 3.93513
33 2 11.6866 -9.01199 38.9987
194 2 -18.8025 23.7408 6.28607
193 1 -19.4706 23.6387 7.22886
27 2 -24.3982 23.5487 -27.6116
195 2 -20.1387 23.5366 8.17164
32 2 11.1915 -9.01492 36.7321
31 1 11.4391 -9.01345 37.8654
210 2 -20.0752 -17.4336 4.28771
208 1 -20.3132 -17.0721 3.21148
209 2 -20.5511 -16.7106 2.13525
189 2 10.3181 55.9636 36.4471
187 1 9.30094 55.592 36.0313
39 2 2.85817 32.9545 8.5296
37 1 1.76655 33.145 8.87267
274 1 7.9102 19.0269 13.6945
1 1 36.2489 18.4473 14.4216
3 2 37.1613 19.1589 14.3403
288 2 39.0683 -9.06227 -21.0315
275 2 6.82503 19.1764 13.3129
234 2 0.816265 18.0098 17.3219
276 2 8.99537 18.8773 14.0761
286 1 38.21 -9.83379 -20.9144
287 2 37.3517 -10.6053 -20.7974
59 2 111.918 58.6526 -19.137
58 1 111.02 58.0495 -18.7183
60 2 110.122 57.4463 -18.2996
179 2 13.3189 19.5271 -24.5149
180 2 12.5259 20.7329 -22.6985
178 1 12.9224 20.13 -23.6067
11 2 -20.4739 20.6948 -26.7707
12 2 -21.7304 22.2914 -25.6506
10 1 -21.1022 21.4931 -26.2106
26 2 -24.8657 21.9092 -26.0381
25 1 -24.632 22.729 -26.8249
38 2 0.674926 33.3354 9.21574
122 2 44.6583 30.1621 16.6573
134 2 49.0306 -6.87659 14.4404
135 2 48.5987 -7.81852 16.5161
133 1 48.8146 -7.34755 15.4783
258 2 11.9714 32.6334 51.1498
256 1 12.4674 32.3317 50.1456
121 1 45.1331 30.6704 17.5856
257 2 12.9635 32.03 49.1414
161 2 17.2155 35.9405 11.8822
291 2 1.52901 -13.4234 23.7471
290 2 0.635593 -11.313 23.3856
289 1 1.0823 -12.3682 23.5664
113 2 7.31041 -17.0246 54.6044
233 2 1.32239 18.4127 19.5499
114 2 5.59658 -15.4895 54.9023
232 1 1.06933 18.2113 18.4359
112 1 6.45349 -16.257 54.7533
243 2 0.00491797 57.4608 20.6666
295 1 14.9458 59.7801 19.1228
104 2 9.39412 21.6951 19.3176
103 1 10.3966 21.8423 19.8823
297 2 13.887 59.6533 18.6662
105 2 11.3992 21.9896 20.447
296 2 16.0045 59.9069 19.5795
143 2 -22.214 -15.5947 -17.6373
142 1 -23.2854 -16.0192 -17.7691
144 2 -24.3569 -16.4438 -17.9009
89 2 43.2667 34.9812 60.2287
88 1 42.5227 35.87 60.1825
263 2 0.0832884 27.706 22.5346
123 2 45.6079 31.1788 18.5139
188 2 8.28377 55.2203 35.6156
152 2 12.8323 19.131 -3.1848
19 1 11.2831 -13.7159 -39.7365
173 2 -21.4536 22.927 -1.38938
292 1 15.1872 20.7754 31.9089
293 2 14.4042 21.5554 31.5566
21 2 11.1953 -13.3235 -40.8246
172 1 -22.2155 23.3041 -0.600209
294 2 15.9702 19.9953 32.2611
20 2 11.3709 -14.1083 -38.6484
197 2 17.3717 61.6111 34.2505
151 1 12.6468 18.07 -2.7542
35 2 5.60143 28.7188 -6.57973
36 2 5.22858 30.0941 -4.74893
34 1 5.41501 29.4064 -5.66433
163 1 49.1878 27.388 -2.49338
164 2 49.2599 27.3164 -1.33784
45 2 52.1108 71.4555 31.2757
44 2 53.5533 71.8703 29.5067
43 1 52.832 71.6629 30.3912
165 2 49.1157 27.4596 -3.64892
282 2 23.3828 73.3571 3.9006
280 1 24.3832 73.5366 4.45971
281 2 25.3836 73.7161 5.01882
14 2 -8.18873 36.8929 0.377534
66 2 32.4322 44.8612 3.31485
48 2 31.6148 37.2797 4.32362
46 1 31.3173 38.2513 3.76403
47 2 31.0198 39.2229 3.20444
15 2 -6.05532 37.7038 0.793934
13 1 -7.12202 37.2984 0.585734
64 1 31.4002 44.9417 3.83846
106 1 28.9806 0.73335 8.85303
54 2 22.5734 -56.0545 -30.5745
52 1 23.3712 -55.7007 -31.3386
53 2 24.1691 -55.3469 -32.1027
51 2 29.6853 -18.5239 4.17296
65 2 30.3682 45.0221 4.36206
204 2 23.8899 4.90152 47.4348
202 1 23.6084 3.85385 47.024
203 2 23.3269 2.80617 46.6132
132 2 24.5741 0.528828 -19.521
130 1 25.0252 1.18905 -18.6806
116 2 -46.24 1.16742 -23.003
115 1 -45.1517 1.54991 -23.1248
160 1 18.35 36.1247 12.039
162 2 19.4844 36.3088 12.1959
167 2 30.624 -30.9118 48.0306
166 1 31.42 -30.504 48.7692
117 2 -44.0634 1.93239 -23.2467
168 2 32.2161 -30.0963 49.5079
107 2 28.99 1.84382 9.18824
170 2 69.6302 2.79377 16.7959
6 2 -0.476535 2.04332 11.5938
169 1 69.8149 3.32056 15.779
226 1 29.0341 38.8979 16.5505
227 2 28.1303 38.2113 16.7901
228 2 29.9379 39.5845 16.311
171 2 69.9995 3.84735 14.7621
4 1 -0.818243 0.94975 11.4124
2 2 35.3364 17.7357 14.5029
230 2 -3.35372 -18.4226 52.3698
42 2 18.2918 2.54298 20.8286
131 2 25.4764 1.84927 -17.8403
212 2 33.5559 6.5006 25.3858
213 2 32.0656 8.17498 25.9842
211 1 32.8108 7.33779 25.685
92 2 -12.3122 51.0299 98.7424
77 2 -50.0114 2.04824 30.1301
76 1 -49.8624 2.33093 31.2452
78 2 -49.7135 2.61362 32.3603
245 2 -12.4548 72.0479 70.1773
244 1 -11.7291 72.875 70.5446
100 1 -47.1042 36.6783 -5.39435
246 2 -11.0034 73.7021 70.9118
101 2 -46.8446 37.5334 -6.13395
141 2 68.2376 38.5633 -37.2362
139 1 67.9379 37.4599 -37.4317
140 2 67.6382 36.3565 -37.6272
201 2 18.0527 12.8455 34.2432
18 2 25.6652 9.16397 28.2691
93 2 -12.643 50.3142 100.924
91 1 -12.4776 50.672 99.8333
183 2 18.5459 53.4147 -2.1154
16 1 25.7023 10.1908 27.7307
199 1 18.8523 13.3576 34.9095
17 2 25.7393 11.2176 27.1922
200 2 19.6519 13.8698 35.5759
110 2 28.5226 17.1977 67.2702
236 2 -15.2307 -14.564 37.5699
235 1 -14.941 -13.6924 36.8615
159 2 95.2096 -10.7341 -28.5503
239 2 18.9812 -11.7148 39.7665
237 2 -14.6513 -12.8208 36.153
157 1 94.5329 -10.5774 -27.6213
238 1 18.0731 -11.1002 39.388
73 1 -38.5662 20.3149 43.457
278 2 29.4412 20.7157 39.7607
279 2 28.9251 22.929 40.227
277 1 29.1832 21.8224 39.9938
74 2 -37.6708 19.652 43.134
75 2 -39.4616 20.9778 43.78
50 2 30.885 -17.3851 5.79968
49 1 30.2851 -17.9545 4.98632
270 2 21.3406 28.3548 6.12662
268 1 22.0474 28.099 5.24317
269 2 22.7543 27.8431 4.35972
108 2 28.9712 -0.377122 8.51782
225 2 24.9693 -11.5127 46.5557
223 1 25.8738 -11.3316 45.8524
87 2 -10.7146 24.719 13.5346
85 1 -11.8023 24.3424 13.6789
158 2 93.8561 -10.4206 -26.6923
86 2 -12.8899 23.9657 13.8231
224 2 26.7784 -11.1504 45.1492
255 2 -1.27068 -12.4145 -19.148
229 1 -3.42138 -17.3786 51.8687
252 2 -5.06376 59.8464 13.0206
231 2 -3.48905 -16.3346 51.3675
250 1 -4.26105 59.2345 12.4489
251 2 -3.45833 58.6226 11.8772
118 1 -0.227427 22.6881 48.2308
120 2 -0.169038 21.8992 49.0792
119 2 -0.285816 23.477 47.3824
253 1 -0.874182 -13.4445 -19.5052
254 2 -0.477684 -14.4744 -19.8623
30 2 23.2119 29.8791 10.355
28 1 23.63 28.9527 9.79592
214 1 18.7195 -3.84129 15.2244
216 2 19.0062 -4.89445 14.8316
215 2 18.4329 -2.78814 15.6172
29 2 24.0481 28.0263 9.23684
5 2 -1.15995 -0.143825 11.2309
57 2 33.2793 -49.483 -14.7981
242 2 -1.37238 56.7536 18.9388
241 1 -0.683731 57.1072 19.8027
56 2 33.3393 -49.9982 -12.5369
55 1 33.3093 -49.7406 -13.6675
207 2 -44.898 -3.90711 23.2177
206 2 -43.7136 -1.9308 23.4891
205 1 -44.3058 -2.91896 23.3534
264 2 -1.93317 27.3653 23.6301
262 1 -0.924943 27.5357 23.0823
83 2 21.0793 55.9086 66.2324
84 2 19.5126 54.5303 65.2186
82 1 20.296 55.2195 65.7255
148 1 -15.6584 21.6591 69.1999
62 2 61.5979 61.4761 34.8164
150 2 -16.8087 21.5874 69.3308
149 2 -14.508 21.7308 69.0689
61 1 62.4621 61.5041 34.0431
198 2 18.8817 60.7401 35.7814
196 1 18.1267 61.1756 35.0159
182 2 19.5932 55.025 -3.41627
181 1 19.0695 54.2198 -2.76584
109 1 28.97 18.1061 67.8363
63 2 63.3264 61.5321 33.2699
111 2 29.4173 19.0144 68.4023
102 2 -47.3638 35.8232 -4.65474
ITEM: TIMESTEP
10000
ITEM: NUMBER OF ATOMS
300
ITEM: BOX BOUNDS pp pp pp
0.0000000000000000e+00 3.6000000000000000e+01
0.0000000000000000e+00 3.6000000000000000e+01
0.0000000000000000e+00 3.6000000000000000e+01
ITEM: ATOMS id type xu yu zu
22 1 50.594 -55.4774 5.78324
196 1 7.0287 36.8125 36.5561
197 2 6.66961 36.0583 37.361
80 2 3.75024 53.7098 8.32806
249 2 43.4365 48.939 8.50574
189 2 15.7633 72.5241 42.2783
23 2 49.4934 -55.1408 5.63827
24 2 51.6945 -55.814 5.92822
281 2 38.301 83.2256 13.3765
280 1 38.6838 82.7183 14.3469
57 2 40.4996 -61.6729 -25.1319
9 2 47.3437 6.24735 47.2056
7 1 47.3211 7.40307 47.3026
8 2 47.2985 8.55878 47.3996
56 2 38.3945 -62.5962 -25.4456
55 1 39.4471 -62.1345 -25.2887
44 2 44.0052 89.7719 49.5911
288 2 37.3192 -20.0124 -24.8337
79 1 3.80544 54.0946 9.42096
248 2 44.2208 49.4178 10.636
114 2 7.08785 -26.0487 51.45
112 1 6.92446 -27.1917 51.3388
113 2 6.76107 -28.3347 51.2276
282 2 39.0667 82.211 15.3172
220 1 -29.1794 49.0041 14.5602
43 1 43.3872 89.3462 48.7065
221 2 -28.1557 49.2238 14.0609
222 2 -30.2032 48.7844 15.0594
70 1 17.4247 10.8217 -20.9368
286 1 36.5627 -20.6066 -24.1854
45 2 42.7692 88.9205 47.822
143 2 -30.358 -18.5969 -18.0416
297 2 -0.366528 50.5319 16.5185
72 2 16.9831 11.3962 -20.031
111 2 45.6067 11.5275 48.4791
109 1 46.2812 12.4534 48.2963
110 2 46.9557 13.3793 48.1136
71 2 17.8664 10.2472 -21.8426
247 1 43.8287 49.1784 9.57088
142 1 -30.705 -18.3572 -19.1222
47 2 37.5425 50.9061 -13.3565
48 2 37.7786 53.0888 -14.1063
15 2 14.0675 51.5337 -16.8322
46 1 37.6605 51.9975 -13.7314
16 1 15.8307 17.519 22.5067
17 2 16.0177 17.9694 23.5593
18 2 15.6437 17.0686 21.4542
14 2 14.4276 49.5467 -15.6901
13 1 14.2475 50.5402 -16.2611
264 2 -23.4229 16.4016 25.5377
262 1 -23.2576 16.6968 26.6472
141 2 73.6327 41.1061 -43.3043
139 1 74.3052 40.663 -42.4694
291 2 10.9189 -29.583 34.4242
290 2 9.03218 -30.8321 33.912
289 1 9.97554 -30.2075 34.1681
162 2 51.6064 40.4887 -2.1309
160 1 52.4282 39.9336 -2.73275
161 2 53.25 39.3786 -3.33459
140 2 74.9776 40.2199 -41.6344
198 2 7.3878 37.5667 35.7513
263 2 -23.0923 16.9921 27.7568
188 2 14.118 71.6835 40.8751
89 2 45.8048 26.9514 72.351
267 2 16.4731 -6.13969 4.87123
244 1 -23.1569 63.6974 72.8108
299 2 -23.1047 23.3702 72.5789
177 2 -35.5903 -4.70491 36.7573
235 1 -18.6549 -11.5325 38.0938
187 1 14.9406 72.1038 41.5767
61 1 49.7614 67.4612 38.1324
175 1 -35.2612 -3.97525 35.9178
82 1 16.2832 57.5118 76.5095
83 2 16.5657 58.0128 77.5169
84 2 16.0007 57.0108 75.5021
246 2 -23.5934 63.0462 73.6658
202 1 14.7032 -8.28585 42.4272
62 2 50.8564 67.4089 38.5117
88 1 44.7526 26.5142 72.1333
203 2 15.6607 -8.94045 42.414
90 2 43.7005 26.0769 71.9157
237 2 -19.0123 -10.4296 38.1335
298 1 -22.3891 23.4979 73.4828
300 2 -21.6735 23.6256 74.3868
155 2 10.4307 24.64 7.41744
236 2 -18.2975 -12.6353 38.0542
163 1 40.1035 28.1978 8.74706
165 2 40.3629 27.1173 8.41419
158 2 111.062 -5.0038 -31.481
159 2 108.865 -5.53377 -30.9571
157 1 109.963 -5.26878 -31.2191
266 2 16.8108 -7.32146 2.90355
265 1 16.6419 -6.73057 3.88739
63 2 48.6664 67.5135 37.7531
204 2 13.7456 -7.63124 42.4403
154 1 11.3369 24.4356 8.11209
206 2 -21.7369 20.2644 36.3509
59 2 110.811 57.0296 -22.5226
58 1 110.31 55.9894 -22.6354
60 2 109.809 54.9492 -22.7481
195 2 -34.7841 21.7826 16.7297
191 2 10.7746 56.1459 -23.3944
193 1 -34.4962 22.6494 17.4448
100 1 -54.113 32.7925 9.54127
118 1 0.472677 24.5789 50.2197
81 2 3.86063 54.4794 10.5139
120 2 1.4724 24.3025 50.7391
102 2 -54.8415 33.4692 10.1388
273 2 -22.1925 -8.83579 47.8249
192 2 10.2007 54.5475 -24.9749
123 2 47.9695 20.5631 15.4411
121 1 47.5865 21.6561 15.3754
144 2 -31.0519 -18.1174 -20.2028
156 2 12.2432 24.2312 8.80675
115 1 -29.7323 -6.22985 -22.7313
190 1 10.4877 55.3467 -24.1846
122 2 47.2036 22.7491 15.3096
272 2 -23.7182 -8.2079 46.1938
271 1 -22.9553 -8.52185 47.0094
69 2 73.0533 -7.76323 81.7987
117 2 -28.6348 -5.86574 -22.8232
68 2 73.9573 -7.08619 83.8253
98 2 1.72164 27.3144 15.8255
116 2 -30.8299 -6.59396 -22.6394
97 1 2.83279 27.6437 15.7756
67 1 73.5053 -7.42471 82.812
99 2 3.94394 27.9731 15.7258
164 2 39.8441 29.2783 9.07994
194 2 -34.2084 23.5162 18.1599
199 1 6.2441 26.584 54.7774
33 2 16.8411 -2.54535 21.0327
255 2 -28.8104 -9.07989 -12.2706
254 2 -27.1019 -10.1781 -11.1492
253 1 -27.9562 -9.62897 -11.7099
200 2 6.11303 25.4792 55.1057
275 2 0.356437 36.0689 22.9165
274 1 1.47183 35.96 22.6172
276 2 2.58723 35.851 22.3178
32 2 14.9389 -1.27098 21.4068
31 1 15.89 -1.90816 21.2197
183 2 12.1085 59.7769 -9.64651
201 2 6.37518 27.6889 54.4491
260 2 72.0041 -43.497 33.6897
34 1 8.31799 28.0445 -5.07882
181 1 11.3795 59.248 -8.91548
251 2 3.39821 59.8058 -2.19895
225 2 37.3783 -16.5791 67.2295
238 1 17.5078 -3.26088 31.0783
240 2 17.7879 -4.06769 31.8633
74 2 -54.3065 26.9453 30.8867
223 1 36.4369 -16.032 67.6297
35 2 7.81383 27.188 -4.48055
207 2 -20.4803 21.8653 35.2371
250 1 2.61648 60.4867 -2.7194
239 2 17.2278 -2.45408 30.2932
205 1 -21.1086 21.0648 35.794
252 2 1.83476 61.1676 -3.23985
20 2 2.16971 -5.02578 -41.0436
21 2 3.48292 -6.23513 -39.562
19 1 2.82632 -5.63046 -40.3028
36 2 8.82215 28.9009 -5.67709
245 2 -22.7204 64.3486 71.9558
176 2 -34.932 -3.24559 35.0782
182 2 10.6505 58.7191 -8.18446
66 2 28.34 46.711 6.06127
185 2 26.3709 40.1109 7.68448
184 1 26.7747 41.1773 7.89725
65 2 28.6717 44.4234 6.2585
64 1 28.5058 45.5672 6.15988
186 2 27.1785 42.2437 8.11001
149 2 -4.35801 48.1273 74.6978
148 1 -5.25485 48.7914 75.0144
150 2 -6.1517 49.4555 75.3311
3 2 32.9964 17.3562 8.81232
39 2 -0.254886 35.9743 7.14189
1 1 32.0049 16.7727 8.96102
153 2 22.4076 1.06167 17.4099
151 1 22.8773 1.51884 16.4528
152 2 23.3469 1.97602 15.4957
295 1 -1.07496 50.3875 15.6113
2 2 31.0135 16.1892 9.10972
241 1 -2.26929 48.7839 12.3306
243 2 -1.4142 48.0732 12.6611
287 2 35.8062 -21.2008 -23.5371
242 2 -3.12438 49.4947 12.0001
296 2 -1.78338 50.2432 14.7042
26 2 -9.58721 7.57633 -15.8525
232 1 -2.24737 2.43099 23.839
234 2 -1.19811 2.17068 23.4184
233 2 -3.29664 2.69131 24.2596
229 1 -1.53881 -31.233 62.9344
128 2 55.8718 15.7072 25.02
10 1 -9.16913 12.4319 -12.7849
12 2 -10.2793 12.0975 -12.8198
11 2 -8.05892 12.7663 -12.75
127 1 55.2399 15.7941 24.0511
129 2 54.6081 15.8809 23.0821
27 2 -10.2941 7.67681 -13.6451
25 1 -9.94064 7.62657 -14.7488
42 2 -1.53588 16.6966 24.3591
178 1 30.3684 7.85796 -13.7065
179 2 29.4762 8.30563 -14.2975
180 2 31.2606 7.41029 -13.1156
41 2 -2.84055 15.2474 23.102
40 1 -2.18822 15.972 23.7306
230 2 -1.24422 -31.9434 62.066
147 2 57.744 77.6561 -44.795
145 1 58.3206 76.7006 -44.4786
126 2 31.321 52.031 28.8989
231 2 -1.8334 -30.5226 63.8029
124 1 31.895 51.4691 28.062
146 2 58.8972 75.745 -44.1622
125 2 32.4691 50.9072 27.2251
294 2 18.8353 33.262 41.6106
92 2 -12.922 60.7499 72.9595
29 2 19.8254 24.7249 8.35978
284 2 27.0924 26.2143 5.32848
76 1 -73.5975 -8.31738 38.0747
54 2 19.8944 -43.802 -35.6754
218 2 23.222 25.3344 8.4763
5 2 -0.408335 -9.87305 7.22041
30 2 18.5856 24.3017 6.44504
28 1 19.2055 24.5133 7.40241
283 1 26.1027 25.6495 5.11096
93 2 -15.0835 60.7916 73.8013
91 1 -14.0027 60.7708 73.3804
213 2 20.2575 22.2667 36.2352
285 2 25.1131 25.0848 4.89344
228 2 32.7578 25.4447 4.04157
226 1 31.6028 25.4896 4.13904
210 2 -4.64964 -8.03478 6.66665
227 2 30.4477 25.5345 4.23651
292 1 19.4006 32.721 40.7543
172 1 -15.6179 29.8287 7.47528
134 2 58.7523 -5.3928 5.93958
214 1 26.9447 -7.38541 1.74487
268 1 27.9169 33.379 1.72179
174 2 -16.2302 30.1409 6.54078
133 1 59.8541 -5.0837 6.1294
135 2 60.956 -4.7746 6.31921
269 2 28.7416 33.8975 1.0921
270 2 27.0921 32.8605 2.35148
256 1 21.5504 27.6657 39.1699
257 2 20.4429 27.3225 39.1327
258 2 22.6578 28.0089 39.207
215 2 26.4999 -8.45487 1.80844
173 2 -15.0057 29.5165 8.40978
293 2 19.966 32.1799 39.898
209 2 -5.71934 -9.24132 8.33471
38 2 -1.83514 34.3655 7.68683
6 2 -1.155 -7.98389 6.09971
208 1 -5.18449 -8.63805 7.50068
96 2 -7.66515 -12.7124 5.71218
216 2 27.3894 -6.31595 1.6813
94 1 -6.99101 -13.1613 6.54259
4 1 -0.781667 -8.92847 6.66006
37 1 -1.04501 35.1699 7.41436
95 2 -6.31687 -13.6103 7.37301
78 2 -74.3101 -9.01331 37.4803
101 2 -53.3845 32.1159 8.94377
77 2 -72.8848 -7.62145 38.6692
277 1 27.4645 27.3466 46.0731
278 2 27.6132 28.4559 46.3778
107 2 19.7712 -9.73093 13.5069
87 2 -5.59346 22.7957 16.9965
85 1 -6.53079 22.2452 16.5915
86 2 -7.46813 21.6948 16.1865
105 2 -8.26367 26.273 13.6872
103 1 -8.06783 25.5997 14.6113
167 2 33.7276 -52.06 52.8565
168 2 33.8502 -52.4308 50.5696
136 1 29.4625 -41.1671 47.9889
137 2 29.7684 -42.2598 47.7481
166 1 33.7889 -52.2454 51.7131
104 2 -7.87198 24.9264 15.5354
106 1 20.5024 -8.83055 13.5253
108 2 21.2335 -7.93017 13.5437
279 2 27.3157 26.2372 45.7684
138 2 29.1565 -40.0744 48.2298
219 2 23.1064 23.8763 10.2771
119 2 -0.527044 24.8552 49.7003
217 1 23.1642 24.6053 9.37672
51 2 25.4208 -12.8325 -4.98692
53 2 18.4606 -44.9801 -37.0678
132 2 31.3346 19.2649 -7.15556
211 1 19.3119 22.6236 35.6659
261 2 71.53 -45.4642 34.8244
49 1 25.4642 -13.8858 -5.47094
75 2 -52.5786 25.5905 31.6359
73 1 -53.4426 26.2679 31.2613
52 1 19.1775 -44.3911 -36.3716
50 2 25.5075 -14.9391 -5.95497
169 1 67.3503 -11.8127 -2.11748
170 2 66.7054 -10.9251 -1.74092
131 2 33.5243 19.6011 -6.46671
171 2 67.9953 -12.7003 -2.49405
212 2 18.3664 22.9805 35.0966
130 1 32.4294 19.433 -6.81114
224 2 35.4955 -15.4848 68.0298
259 1 71.7671 -44.4806 34.257
ITEM: TIMESTEP
20000
ITEM: NUMBER OF ATOMS
300
ITEM: BOX BOUNDS pp pp pp
0.0000000000000000e+00 3.6000000000000000e+01
0.0000000000000000e+00 3.6000000000000000e+01
0.0000000000000000e+00 3.6000000000000000e+01
ITEM: ATOMS id type xu yu zu
88 1 44.9091 36.6729 39.3518
74 2 -61.8737 44.6616 42.8355
53 2 9.17521 -30.5258 -30.7638
52 1 8.6529 -31.5615 -30.7751
73 1 -61.3429 45.211 41.9625
54 2 8.13058 -32.5972 -30.7864
181 1 37.7703 39.772 3.16435
183 2 38.8918 39.9555 2.93165
182 2 36.6488 39.5885 3.39704
75 2 -60.8121 45.7603 41.0895
299 2 -24.9171 47.7974 74.0873
300 2 -26.2259 48.3397 75.9245
298 1 -25.5715 48.0686 75.0059
90 2 46.0516 36.8276 39.2238
291 2 36.4602 -22.0876 77.2259
207 2 -31.9453 36.1831 4.29568
89 2 43.7666 36.5181 39.4799
51 2 11.3287 -24.9582 -23.1859
262 1 -23.6237 43.5655 10.6773
257 2 8.74314 45.5884 46.4547
258 2 8.45915 46.5644 48.5402
256 1 8.60115 46.0764 47.4975
264 2 -24.3613 44.2163 10.0624
275 2 16.017 41.3535 13.6168
276 2 16.8975 43.2964 12.7046
50 2 10.4033 -23.9874 -21.2928
49 1 10.866 -24.4728 -22.2393
274 1 16.4572 42.3249 13.1607
263 2 -22.8861 42.9148 11.2922
180 2 41.9665 8.89863 -9.59316
178 1 41.1225 9.55611 -9.14473
46 1 4.37711 45.5059 -14.5937
144 2 -34.2246 -25.8511 -11.0547
288 2 45.4959 -35.7102 -13.4398
143 2 -33.9281 -23.6074 -11.5646
48 2 4.10629 44.4864 -15.0762
142 1 -34.0763 -24.7292 -11.3097
109 1 43.7821 9.17525 59.2638
111 2 44.6539 9.67784 59.8409
110 2 42.9103 8.67266 58.6868
47 2 4.64793 46.5255 -14.1112
239 2 7.96691 7.38214 33.288
240 2 6.5961 5.77793 34.2522
238 1 7.2815 6.58004 33.7701
120 2 3.59885 37.3341 65.5048
118 1 4.33206 38.1355 65.0975
119 2 5.06526 38.9368 64.6903
112 1 12.8795 -21.8896 67.4894
77 2 -94.1174 -34.2303 28.2002
78 2 -93.7931 -31.9448 28.432
76 1 -93.9553 -33.0875 28.3161
230 2 5.14452 -22.5006 70.0688
229 1 4.03801 -22.3189 70.3659
150 2 9.59332 47.1677 71.6229
114 2 13.9944 -22.1942 67.3908
231 2 2.9315 -22.1372 70.6629
149 2 10.7619 48.5253 70.1486
148 1 10.1776 47.8465 70.8857
113 2 11.7645 -21.585 67.5881
179 2 40.2786 10.2136 -8.6963
123 2 52.0904 28.9293 2.73124
70 1 17.2896 -12.6514 -35.1304
82 1 14.3673 59.7741 74.5368
83 2 15.2921 59.4184 75.1401
84 2 13.4425 60.1297 73.9336
44 2 46.9767 100.011 37.1594
121 1 52.0664 27.9259 2.14973
147 2 73.0669 69.1055 -33.3303
122 2 52.0423 26.9224 1.56823
146 2 74.6127 67.8914 -34.5626
26 2 2.78451 -2.16313 -27.8064
206 2 -30.3909 35.4976 5.87563
205 1 -31.1681 35.8404 5.08566
145 1 73.8398 68.4984 -33.9465
43 1 46.3406 100.714 36.4916
71 2 16.4398 -13.0477 -35.8133
222 2 -30.5914 63.0383 11.9593
220 1 -30.4789 61.9171 12.2347
241 1 5.70536 60.1926 15.6463
221 2 -30.3663 60.796 12.5101
242 2 6.63387 59.5282 15.4414
243 2 4.77686 60.8571 15.8512
219 2 6.2221 20.9582 11.3973
168 2 47.4169 -50.7766 53.346
25 1 2.85808 -3.00306 -27.0097
27 2 2.93165 -3.84298 -26.213
11 2 -0.250427 -4.00449 12.6712
24 2 51.1909 -76.3294 16.1185
246 2 -23.8294 64.2542 84.1965
166 1 48.4521 -51.2552 53.5577
244 1 -22.8348 64.8463 84.1195
217 1 5.10457 20.6744 11.27
245 2 -21.8402 65.4383 84.0426
22 1 52.0999 -76.5497 16.8046
218 2 3.98704 20.3906 11.1427
167 2 49.4874 -51.7337 53.7694
23 2 53.0089 -76.77 17.4907
39 2 2.83427 29.3135 -18.7475
234 2 6.97162 23.9671 24.3919
197 2 4.26025 26.2973 19.3451
233 2 6.59294 24.1843 22.1134
232 1 6.78228 24.0757 23.2526
196 1 3.72068 25.8405 20.2648
41 2 -27.767 21.2092 22.9732
124 1 14.0939 59.0826 25.4223
126 2 13.8073 57.9816 25.1962
40 1 -27.2226 21.2447 23.997
42 2 -26.6783 21.2803 25.0207
81 2 5.46896 56.1129 25.3748
152 2 42.8409 -1.7963 24.0911
286 1 46.1463 -36.5193 -12.9222
153 2 44.1374 -0.442482 25.4581
38 2 2.45754 29.8019 -16.5109
198 2 3.1811 25.3837 21.1845
37 1 2.6459 29.5577 -17.6292
151 1 43.4891 -1.11939 24.7746
287 2 46.7966 -37.3285 -12.4046
125 2 14.3806 60.1836 25.6485
138 2 36.5562 -45.8271 55.1468
79 1 5.15155 55.9468 26.4781
189 2 13.4907 66.8564 26.1594
176 2 -29.0437 -9.5356 31.52
140 2 75.2242 26.9393 -42.855
139 1 74.1841 26.5156 -42.5649
175 1 -29.7025 -10.4841 31.4104
293 2 13.3603 25.8007 28.7956
268 1 37.1013 28.7629 -3.46022
177 2 -30.3612 -11.4326 31.3008
141 2 73.1439 26.092 -42.2747
80 2 4.83413 55.7807 27.5814
296 2 -28.2839 55.9571 28.4507
295 1 -28.101 56.0703 29.5905
297 2 -27.918 56.1835 30.7304
170 2 81.3575 -12.5321 -4.60661
169 1 82.1642 -11.9985 -5.24697
294 2 14.8226 27.4753 28.1325
14 2 9.48122 64.0613 -41.7749
171 2 82.971 -11.465 -5.88733
115 1 -23.7064 -16.6937 -7.31583
292 1 14.0914 26.638 28.464
273 2 -27.7021 -9.15949 35.3476
202 1 17.9962 -10.2783 27.608
203 2 17.4274 -10.3896 28.6128
248 2 48.8305 60.6911 -2.90964
116 2 -23.7894 -15.5367 -7.31612
117 2 -23.6234 -17.8508 -7.31555
13 1 8.7512 64.7511 -41.1945
235 1 -35.4359 -1.29321 27.7925
237 2 -35.1269 -0.278587 28.2622
252 2 3.32154 66.6684 -7.13588
251 2 5.28448 65.4576 -7.3875
250 1 4.30301 66.063 -7.26169
236 2 -35.745 -2.30784 27.3228
253 1 -30.3533 -5.9513 -1.2922
255 2 -30.8576 -4.91071 -1.38369
254 2 -29.8489 -6.99189 -1.20072
15 2 8.02118 65.4409 -40.6142
247 1 48.2498 61.6169 -2.52081
45 2 45.7046 101.418 35.8238
188 2 12.0602 67.1227 27.9663
187 1 12.7755 66.9895 27.0629
269 2 36.1963 29.4665 -3.28255
249 2 47.669 62.5428 -2.13198
271 1 -28.8242 -9.45252 35.3723
270 2 38.0063 28.0593 -3.6379
272 2 -29.9463 -9.74555 35.397
172 1 -1.6344 42.7368 4.66443
57 2 27.1558 -66.3678 -29.2423
55 1 28.2263 -65.9241 -29.2966
173 2 -1.78786 41.587 4.65152
56 2 29.2967 -65.4805 -29.3509
174 2 -1.48095 43.8865 4.67735
200 2 -4.91775 41.7938 73.8669
201 2 -5.15942 43.2907 72.111
199 1 -5.03859 42.5423 72.989
289 1 36.0568 -23.0996 76.8274
290 2 35.6535 -24.1116 76.4289
158 2 94.1595 -19.7317 9.39857
28 1 32.1818 14.1432 -19.3258
127 1 55.0339 14.2229 13.7383
129 2 54.4121 14.6529 12.8584
16 1 26.8513 13.1388 16.7829
17 2 27.324 13.6462 17.7128
128 2 55.6556 13.7929 14.6181
2 2 21.6854 8.98682 13.1119
64 1 27.2379 37.77 -18.7107
1 1 20.9688 9.88427 13.2755
3 2 20.2523 10.7817 13.439
66 2 26.2218 37.6472 -19.2567
69 2 70.2293 -19.1295 81.6244
68 2 68.7977 -20.1621 83.13
18 2 26.3786 12.6313 15.8531
67 1 69.5135 -19.6458 82.3772
30 2 32.3344 14.4494 -20.4342
157 1 95.2426 -19.3272 9.49305
29 2 32.0292 13.8371 -18.2174
159 2 96.3257 -18.9227 9.58754
195 2 -48.7502 5.63746 23.711
194 2 -48.0169 3.76203 22.5589
193 1 -48.3835 4.69975 23.135
281 2 32.7528 84.6799 20.847
35 2 -14.0789 47.0056 -17.6298
34 1 -14.4002 48.0567 -17.259
36 2 -14.7215 49.1078 -16.8881
65 2 28.2539 37.8927 -18.1647
282 2 34.0402 86.3547 19.8876
192 2 -10.0853 36.4322 -52.815
280 1 33.3965 85.5173 20.3673
266 2 29.258 -18.6267 -7.48543
107 2 30.6443 -18.1567 -3.21965
7 1 68.3494 11.6273 70.3695
33 2 61.1733 12.5399 35.0225
31 1 61.7325 13.3745 35.6024
32 2 62.2917 14.2091 36.1823
9 2 68.8362 10.7463 69.7928
8 2 67.8626 12.5082 70.9462
216 2 24.7961 -11.678 4.29092
284 2 29.2374 23.1911 2.61807
96 2 -13.9212 -9.59769 7.81078
214 1 25.0994 -12.0024 5.36255
85 1 -6.17861 26.9506 6.28521
72 2 18.1394 -12.2551 -34.4474
213 2 25.439 19.3979 44.4781
156 2 -1.71128 32.508 3.06086
215 2 25.4027 -12.3268 6.43417
94 1 -13.5247 -10.5523 8.33713
285 2 28.2218 22.8874 4.68172
283 1 28.7296 23.0393 3.64989
131 2 30.9263 -13.7968 5.36087
210 2 -7.34147 -13.0946 8.68577
135 2 70.3456 -8.01163 0.348665
259 1 67.0693 -41.1151 41.0567
130 1 31.5331 -13.3827 6.25857
87 2 -6.70743 27.709 6.98573
132 2 32.14 -12.9686 7.15627
211 1 24.2901 19.5516 44.5225
133 1 69.8215 -7.72995 1.3444
212 2 23.1412 19.7054 44.5668
226 1 25.7715 31.8344 8.69627
155 2 -3.06456 33.5429 1.48609
227 2 26.3471 31.6764 7.70164
86 2 -5.64978 26.1922 5.58469
134 2 69.2973 -7.44827 2.34014
154 1 -2.38792 33.0255 2.27348
260 2 66.4834 -41.9902 41.5429
261 2 67.6553 -40.24 40.5705
95 2 -13.1282 -11.507 8.86348
93 2 -11.0449 58.3213 83.2833
92 2 -10.3602 60.4402 83.9345
91 1 -10.7026 59.3807 83.6089
165 2 28.2758 27.3492 15.0276
99 2 -13.2143 21.4669 16.13
63 2 54.726 90.5575 50.4919
97 1 -13.6246 20.4677 15.707
98 2 -14.0349 19.4686 15.284
163 1 27.6517 26.3843 14.8695
164 2 27.0276 25.4193 14.7114
6 2 -17.3516 -40.2057 12.8583
162 2 58.9147 25.9068 12.0248
5 2 -17.0365 -40.3005 10.5617
4 1 -17.194 -40.2531 11.71
161 2 60.3829 26.4623 13.7331
12 2 -0.759053 -5.36866 10.8649
19 1 25.5956 -4.58672 -56.4972
20 2 25.9178 -3.4895 -56.3026
160 1 59.6488 26.1845 12.8789
21 2 25.2733 -5.68394 -56.6918
104 2 -2.34273 29.8608 14.9231
60 2 99.7346 66.4725 -23.051
59 2 100.548 67.1989 -25.0987
103 1 -1.48376 29.0861 14.8366
58 1 100.141 66.8357 -24.0749
186 2 30.9089 31.8698 13.1677
184 1 31.5823 32.341 13.9863
105 2 -0.624788 28.3113 14.75
185 2 32.2557 32.8123 14.8049
61 1 54.8346 91.2261 51.4336
228 2 25.1959 31.9924 9.6909
62 2 54.9433 91.8946 52.3753
10 1 -0.50474 -4.68657 11.768
208 1 -8.11632 -12.2913 9.00187
209 2 -8.89117 -11.488 9.31797
277 1 26.9709 27.8985 54.7975
279 2 26.0286 28.5054 55.0962
136 1 35.836 -46.7106 55.3619
190 1 -10.7754 35.576 -53.1843
137 2 35.1158 -47.5942 55.577
278 2 27.9132 27.2915 54.4988
191 2 -11.4655 34.7198 -53.5535
101 2 -49.0109 54.8171 22.4853
100 1 -49.2622 55.9455 22.5806
102 2 -49.5135 57.074 22.6759
204 2 18.5651 -10.167 26.6032
225 2 32.6187 -9.91675 66.7935
223 1 33.058 -10.8417 66.2483
106 1 31.1151 -17.1474 -3.54382
265 1 29.6974 -17.5921 -7.19869
224 2 33.4973 -11.7666 65.7032
267 2 30.1368 -16.5576 -6.91196
108 2 31.586 -16.1381 -3.868
ITEM: TIMESTEP
30000
ITEM: NUMBER OF ATOMS
300
ITEM: BOX BOUNDS pp pp pp
0.0000000000000000e+00 3.6000000000000000e+01
0.0000000000000000e+00 3.6000000000000000e+01
0.0000000000000000e+00 3.6000000000000000e+01
ITEM: ATOMS id type xu yu zu
51 2 9.29877 -22.2115 -27.7729
217 1 -31.6398 4.35828 44.8315
218 2 -31.4897 3.20928 44.7777
113 2 8.7303 -29.3764 79.6975
112 1 8.07485 -28.4378 79.8843
114 2 7.4194 -27.4991 80.0712
49 1 8.97319 -23.0683 -28.4839
159 2 110.539 -30.1113 41.4953
157 1 109.691 -30.0893 42.2867
50 2 8.64761 -23.925 -29.195
299 2 -30.1037 48.9846 80.4018
158 2 108.844 -30.0673 43.0781
173 2 2.62533 72.0373 3.71399
44 2 45.9895 89.7811 40.3003
298 1 -30.2067 47.9704 80.9553
290 2 37.2889 -30.2737 84.8323
289 1 36.5349 -29.3962 84.916
54 2 -25.1591 -23.2923 -58.9292
256 1 4.51243 40.1616 49.0476
258 2 4.72143 40.0144 47.9161
257 2 4.30343 40.3088 50.1791
231 2 4.20126 -26.9714 84.3517
229 1 4.85905 -27.8567 83.9923
219 2 -31.7898 5.50727 44.8852
189 2 13.7569 46.8955 16.6931
187 1 14.7309 46.645 17.2711
240 2 10.8226 8.45639 48.2969
300 2 -30.3097 46.9562 81.5088
53 2 -26.5753 -22.9376 -60.7322
276 2 5.10106 43.8988 14.8319
239 2 9.34857 7.92893 46.5848
274 1 4.24395 43.6405 15.5696
230 2 5.51685 -28.742 83.6329
275 2 3.38684 43.3823 16.3073
238 1 10.0856 8.19266 47.4409
52 1 -25.8672 -23.115 -59.8307
188 2 15.705 46.3945 17.8491
177 2 -33.1143 0.41051 24.5698
68 2 72.8483 -24.3069 62.268
9 2 76.5934 8.58364 61.7812
88 1 52.342 39.2527 25.4179
90 2 53.2129 38.9418 26.1183
89 2 51.4711 39.5637 24.7176
7 1 76.0342 9.43208 61.2217
179 2 37.1382 17.842 -12.6707
67 1 73.1374 -23.25 62.6486
8 2 75.475 10.2805 60.6622
3 2 0.559262 5.10796 -8.25069
1 1 1.32003 5.11163 -7.375
2 2 2.08079 5.1153 -6.49932
160 1 44.5902 8.44807 33.4896
162 2 44.99 9.14682 32.6544
233 2 2.73491 40.6115 33.167
232 1 2.04725 40.0453 33.9101
192 2 -32.6327 36.6219 -77.5173
234 2 1.35958 39.4792 34.6532
171 2 88.6373 13.2357 -0.386336
161 2 44.1905 7.74932 34.3247
169 1 89.4436 13.843 -0.957937
297 2 -30.0159 53.3354 34.2446
69 2 73.4265 -22.193 63.0292