ITEM: TIMESTEP
0
ITEM: NUMBER OF ATOMS
300
ITEM: BOX BOUNDS pp pp pp
0.0000000000000000e+00 3.6000000000000000e+01
0.0000000000000000e+00 3.6000000000000000e+01
0.0000000000000000e+00 3.6000000000000000e+01
ITEM: ATOMS id type xu yu zu
88 1 1.82458 43.4983 44.5169
106 1 2.53372 36.7816 76.1505
108 2 1.89988 37.685 76.5077
81 2 8.4896 2.75088 -66.967
90 2 1.32812 44.0555 43.6288
165 2 36.1788 44.3743 39.962
79 1 7.77221 1.91963 -66.5928
80 2 7.05481 1.08838 -66.2187
182 2 10.6987 0.71807 109.472
187 1 82.2476 40.6167 8.19353
183 2 9.67028 2.5391 108.468
189 2 83.0473 41.3022 7.70758
181 1 10.1845 1.62858 108.97
188 2 81.4479 39.9312 8.67948
102 2 41.9595 -23.9302 37.8253
8 2 1.16595 16.3888 40.9418
100 1 42.5738 -24.8973 37.6435
101 2 43.188 -25.8643 37.4618
7 1 0.782091 17.4692 40.7657
31 1 -19.2383 49.9464 3.10168
33 2 -19.9636 49.2597 3.69146
32 2 -18.513 50.6332 2.5119
184 1 9.85402 10.2385 8.13479
186 2 9.17796 9.57876 7.4615
185 2 10.5301 10.8982 8.80808
104 2 3.96328 37.8593 52.6951
105 2 6.26691 37.9276 52.9616
103 1 5.1151 37.8934 52.8283
112 1 3.83013 78.4817 17.9362
73 1 8.99759 -29.1763 -20.2305
75 2 8.95129 -30.1221 -19.5605
116 2 -30.9695 -63.7788 46.871
113 2 3.13354 78.2015 17.052
129 2 0.990011 1.64698 -57.8854
117 2 -29.9831 -63.3493 48.9265
115 1 -30.4763 -63.564 47.8987
89 2 2.32103 42.9411 45.405
266 2 0.631066 36.1926 9.53694
261 2 16.1945 72.0688 53.6953
259 1 17.0434 72.8033 53.403
4 1 16.9196 -29.9004 16.876
260 2 17.8923 73.5379 53.1107
6 2 16.4017 -29.8999 15.838
93 2 -21.3527 8.39709 16.9352
74 2 9.04389 -28.2305 -20.9006
91 1 -22.4725 8.69971 16.9266
5 2 17.4375 -29.9009 17.9139
242 2 8.16396 85.6584 11.7099
241 1 8.18221 84.5541 11.3552
243 2 8.20045 83.4498 11.0004
92 2 -23.5923 9.00232 16.918
279 2 6.47935 40.8172 21.7861
278 2 5.40022 42.8673 21.6638
277 1 5.93978 41.8423 21.7249
135 2 36.2468 78.3116 -46.7601
114 2 4.52671 78.762 18.8204
216 2 72.2534 4.68285 -17.982
51 2 49.7874 40.5504 19.5223
131 2 -26.0732 1.29174 62.07
49 1 49.1316 39.9299 20.2505
50 2 48.4757 39.3094 20.9788
130 1 -25.0537 1.0521 62.5687
256 1 48.3388 49.7076 24.3574
258 2 47.5596 50.3214 23.7559
257 2 49.1179 49.0938 24.9589
287 2 45.2796 43.4996 30.8906
47 2 -62.3072 -65.8346 70.9015
48 2 -60.7408 -67.3052 70.0261
46 1 -61.524 -66.5699 70.4638
286 1 46.2845 43.859 30.4362
288 2 47.2895 44.2183 29.9817
132 2 -24.0341 0.812463 63.0674
95 2 40.0712 49.4329 29.6521
169 1 39.4241 12.029 34.5233
96 2 38.9279 49.6519 27.6453
171 2 39.2348 11.5239 35.5503
170 2 39.6133 12.534 33.4963
94 1 39.4996 49.5424 28.6487
3 2 16.0173 45.3779 34.4214
1 1 17.0505 45.1806 34.9105
253 1 2.85834 -9.4389 39.2998
15 2 6.29287 61.5666 -28.0694
255 2 3.75282 -9.4763 38.5622
254 2 1.96386 -9.4015 40.0374
9 2 0.398232 18.5496 40.5897
13 1 7.25314 61.7633 -27.449
225 2 50.5627 25.5492 39.7347
140 2 15.8484 58.3987 2.32966
139 1 16.9515 58.6663 2.09096
223 1 51.022 26.6099 39.6368
20 2 87.9824 -16.7586 44.8054
66 2 1.03731 32.6768 5.81692
107 2 3.16756 35.8781 75.7933
245 2 -65.8829 33.8117 2.80985
64 1 0.108019 32.1186 6.22973
244 1 -66.3052 32.8747 3.34781
246 2 -66.7275 31.9378 3.88576
224 2 51.4813 27.6705 39.5389
40 1 40.587 19.6608 53.0554
151 1 6.67546 -10.5191 13.4542
153 2 7.47615 -11.3387 13.6351
152 2 5.87478 -9.69944 13.2733
42 2 40.9286 20.3467 52.1845
14 2 8.2134 61.96 -26.8287
41 2 40.2455 18.9749 53.9263
264 2 17.2932 97.6686 48.2847
269 2 46.2395 21.1934 47.5204
268 1 46.0671 21.6757 48.5612
270 2 45.8946 22.158 49.602
262 1 16.4237 97.7084 49.0514
263 2 15.5541 97.7481 49.8182
19 1 87.2376 -17.3314 45.4856
21 2 86.4928 -17.9043 46.1658
77 2 75.5944 -3.48644 10.3573
144 2 37.8418 -41.9981 -20.9696
78 2 74.1931 -4.38563 11.9729
142 1 37.002 -42.7975 -20.9333
76 1 74.8937 -3.93604 11.1651
143 2 36.1623 -43.5969 -20.8969
83 2 -55.3342 29.6724 11.6131
82 1 -54.7828 30.6099 12.0164
84 2 -54.2314 31.5474 12.4196
276 2 37.2538 -16.1396 -46.8673
274 1 36.9861 -15.0793 -47.2545
275 2 36.7185 -14.0191 -47.6416
72 2 72.7536 -3.6948 -14.8587
167 2 44.6396 -3.39698 60.1065
207 2 5.20106 27.5021 22.7778
205 1 6.27557 27.3979 23.2022
206 2 7.35008 27.2936 23.6267
71 2 73.3493 -4.59549 -16.912
70 1 73.0515 -4.14515 -15.8854
166 1 45.5158 -3.78728 59.4542
294 2 -24.0006 -8.4608 -47.4463
168 2 46.3921 -4.17758 58.8019
292 1 -24.6597 -7.82936 -46.7303
293 2 -25.3187 -7.19793 -46.0144
99 2 37.3772 26.0076 35.2959
97 1 36.5006 26.6798 34.9419
291 2 49.5405 26.4682 -1.41036
218 2 15.9778 24.1268 71.7333
219 2 14.4481 23.3089 70.1927
217 1 15.2129 23.7178 70.963
120 2 -19.707 -45.7224 33.4516
289 1 48.8013 26.63 -2.28953
290 2 48.062 26.7918 -3.1687
118 1 -19.6894 -44.7054 34.0093
119 2 -19.6718 -43.6884 34.567
111 2 53.2982 35.4642 -4.55544
109 1 53.9152 34.5048 -4.3446
68 2 19.1722 5.29734 4.20284
69 2 18.504 3.08388 4.39385
67 1 18.8381 4.19061 4.29834
271 1 24.8882 2.62779 75.0883
272 2 24.7779 3.27193 74.1299
273 2 24.9985 1.98365 76.0467
221 2 -45.3965 -18.8033 3.98841
220 1 -45.0411 -18.1538 4.88134
62 2 22.1066 -18.3445 36.7816
163 1 35.7828 45.4304 40.2329
150 2 -79.1543 16.3489 38.7393
149 2 -80.211 14.7795 37.3967
148 1 -79.6826 15.5642 38.068
164 2 35.3867 46.4866 40.5037
194 2 104.411 4.12065 123.854
195 2 103.292 4.33791 121.833
193 1 103.851 4.22928 122.844
267 2 -1.16224 37.1149 10.684
214 1 71.9573 3.56785 -18.1032
127 1 -0.0373345 1.13894 -58.0644
265 1 -0.265587 36.6538 10.1105
128 2 -1.06468 0.630896 -58.2434
215 2 71.6612 2.45285 -18.2244
227 2 23.4129 51.5207 12.1938
226 1 23.5585 51.5862 13.3428
228 2 23.704 51.6516 14.4918
155 2 -10.5787 17.7286 52.9976
283 1 33.1301 14.0319 -59.7235
234 2 31.7876 14.5681 16.7327
284 2 32.6528 13.4102 -58.8683
30 2 101.484 86.997 14.1951
29 2 100.105 87.0516 12.3305
232 1 32.0136 15.4051 15.962
233 2 32.2396 16.242 15.1913
28 1 100.795 87.0243 13.2628
285 2 33.6074 14.6536 -60.5786
12 2 -0.665076 3.64536 20.8767
11 2 -2.97775 3.54634 20.7214
10 1 -1.82141 3.59585 20.7991
86 2 -6.50141 -33.7892 -10.4664
85 1 -7.19074 -33.569 -9.55981
133 1 35.4785 77.5738 -46.3009
134 2 34.7102 76.8359 -45.8416
236 2 -6.23075 53.5035 26.533
36 2 -7.09001 -60.7669 -9.57245
198 2 30.7119 82.9361 21.5235
196 1 29.7278 83.4907 21.2597
197 2 28.7438 84.0454 20.9958
136 1 25.6248 1.35355 32.5055
138 2 26.4872 0.58097 32.4345
137 2 24.7625 2.12614 32.5765
296 2 58.4677 1.48424 -72.7296
297 2 60.5403 0.641942 -72.1156
2 2 18.0837 44.9834 35.3997
295 1 59.504 1.06309 -72.4226
25 1 30.7186 -27.9833 64.2352
26 2 31.3737 -28.4143 65.09
87 2 -7.88007 -33.3488 -8.6532
27 2 30.0635 -27.5523 63.3805
63 2 21.4537 -19.1602 34.7102
61 1 21.7801 -18.7523 35.7459
35 2 -8.16105 -60.1527 -7.60828
34 1 -7.62553 -60.4598 -8.59037
123 2 -4.39067 49.8907 -40.2783
121 1 -4.88974 48.8739 -40.0281
122 2 -5.38882 47.857 -39.7779
141 2 18.0547 58.934 1.85226
248 2 58.6998 61.4232 -31.9858
249 2 56.8053 62.4872 -32.7987
247 1 57.7526 61.9552 -32.3922
300 2 27.49 -9.50973 2.58319
178 1 -6.5955 -14.5368 -64.993
180 2 -7.24908 -13.6425 -64.6485
179 2 -5.94192 -15.431 -65.3376
209 2 29.0884 59.1571 3.53715
208 1 29.5352 59.7134 2.62261
222 2 -44.6856 -17.5043 5.77428
210 2 29.982 60.2698 1.70806
299 2 26.0757 -8.29516 3.96411
298 1 26.7829 -8.90245 3.27365
57 2 19.9999 29.3083 36.6749
281 2 24.5359 -1.34222 41.7716
160 1 -14.3427 -4.21449 -70.2145
282 2 24.8104 -2.69533 43.6361
280 1 24.6732 -2.01878 42.7038
161 2 -15.1642 -3.69502 -69.5813
162 2 -13.5213 -4.73396 -70.8476
55 1 20.5261 28.5147 36.0124
65 2 -0.821266 31.5603 6.64255
212 2 -4.11134 68.665 108.259
154 1 -11.6539 18.1239 53.1799
156 2 -12.7291 18.5192 53.3621
16 1 -17.2028 69.6767 15.896
17 2 -16.4301 69.1921 15.1793
18 2 -17.9756 70.1612 16.6126
176 2 68.3858 30.2783 15.2094
177 2 70.0058 31.5053 16.3285
175 1 69.1958 30.8918 15.769
157 1 -14.8019 20.98 93.621
158 2 -14.6511 20.4439 92.6035
159 2 -14.9527 21.5161 94.6386
235 1 -6.9621 54.3968 26.4204
237 2 -7.69345 55.2902 26.3078
124 1 24.4032 31.492 58.615
126 2 24.8377 32.5666 58.5712
125 2 23.9687 30.4173 58.6588
53 2 -11.0655 -1.71264 -9.11577
146 2 22.9052 25.5738 30.8014
145 1 22.8129 24.9666 31.7854
202 1 23.0247 -16.5793 -4.69159
204 2 22.5332 -16.3258 -5.71131
147 2 22.7207 24.3594 32.7695
203 2 23.5161 -16.8328 -3.67188
191 2 19.0349 -10.4971 -39.1592
38 2 21.8469 -15.1061 -0.863622
37 1 20.7398 -15.1591 -0.521348
190 1 18.7162 -11.6013 -39.002
192 2 18.3975 -12.7055 -38.8448
39 2 19.6327 -15.2121 -0.179074
231 2 -36.928 -47.8447 -2.67727
229 1 -37.9782 -47.9092 -3.16565
230 2 -39.0284 -47.9737 -3.65402
200 2 -51.5896 64.3913 -7.49037
54 2 -9.20799 -0.551365 -8.35181
201 2 -53.369 64.4201 -6.00198
199 1 -52.4793 64.4057 -6.74618
238 1 -10.5889 -7.72688 67.92
252 2 18.008 30.5122 -1.95828
43 1 25.5017 -7.32638 63.6885
240 2 -10.9425 -6.72445 67.4555
251 2 18.4512 32.2504 -0.486988
59 2 22.1484 30.5473 -2.50662
60 2 23.9739 31.6412 -1.5828
56 2 21.0524 27.7212 35.3499
58 1 23.0612 31.0942 -2.04471
52 1 -10.1367 -1.132 -8.73379
110 2 54.5321 33.5453 -4.13376
44 2 25.6086 -8.4642 63.4897
239 2 -10.2353 -8.72931 68.3844
250 1 18.2296 31.3813 -1.22263
45 2 25.3949 -6.18856 63.8874
173 2 -4.35999 32.1461 -5.9101
98 2 35.6241 27.3521 34.5878
213 2 -5.65126 69.2634 106.63
172 1 -5.1739 31.9029 -6.70004
24 2 -6.45192 -0.63275 -3.64997
23 2 -8.09208 -1.7231 -4.87611
22 1 -7.272 -1.17793 -4.26304
174 2 -5.98781 31.6597 -7.48998
211 1 -4.8813 68.9642 107.444
ITEM: TIMESTEP
10000
ITEM: NUMBER OF ATOMS
300
ITEM: BOX BOUNDS pp pp pp
0.0000000000000000e+00 3.6000000000000000e+01
0.0000000000000000e+00 3.6000000000000000e+01
0.0000000000000000e+00 3.6000000000000000e+01
ITEM: ATOMS id type xu yu zu
141 2 10.0027 42.7002 8.60601
213 2 3.82305 81.0441 147.322
212 2 4.5252 83.0191 148.316
211 1 4.17412 82.0316 147.819
139 1 10.1279 41.5472 8.58693
135 2 49.7815 116.237 -67.4385
178 1 15.7182 -33.8959 -71.5723
105 2 16.4559 42.0039 75.5291
103 1 15.4441 41.6375 75.9622
104 2 14.4322 41.2711 76.3952
134 2 48.2735 115.119 -66.075
133 1 49.0275 115.678 -66.7568
277 1 1.61857 47.0763 37.3785
278 2 1.33549 46.7366 38.4509
140 2 10.253 40.3941 8.56785
180 2 15.8429 -33.7736 -70.4255
279 2 1.90164 47.416 36.306
87 2 -26.6619 -30.4891 0.160033
144 2 40.1747 -34.6003 -18.8516
251 2 8.64883 39.0449 -18.6593
252 2 10.8636 38.4191 -18.9517
259 1 10.8322 83.682 49.8373
260 2 11.1747 82.5765 49.7583
261 2 10.4897 84.7874 49.9163
152 2 11.028 6.96536 14.8714
151 1 11.5489 7.2377 15.8715
148 1 -95.1847 6.77588 47.918
149 2 -96.0372 6.93958 47.1486
150 2 -94.3322 6.61217 48.6875
153 2 12.0698 7.51005 16.8715
250 1 9.75623 38.732 -18.8055
217 1 1.13302 7.75478 55.043
218 2 0.0230562 7.47107 54.8611
65 2 5.67789 37.2372 -11.9396
219 2 2.24299 8.03848 55.2249
13 1 9.78325 74.2845 -47.5765
45 2 36.6549 -22.1735 60.158
254 2 0.8025 7.95805 24.9226
253 1 0.143875 7.36126 24.1772
267 2 38.2926 11.281 -14.7352
265 1 37.1872 11.2881 -14.3837
15 2 8.73346 74.2577 -47.0837
143 2 40.0097 -33.2699 -16.9581
173 2 -30.4384 10.0627 -15.9106
236 2 -22.3328 52.3829 21.7372
235 1 -22.3811 53.4863 21.3824
172 1 -29.6036 9.84891 -16.6871
43 1 37.473 -21.4157 59.8384
14 2 10.833 74.3112 -48.0693
44 2 38.291 -20.6579 59.5188
174 2 -28.7688 9.63511 -17.4636
64 1 6.30685 36.2775 -12.1097
142 1 40.0922 -33.9351 -17.9048
39 2 38.2568 -23.6802 -7.31317
227 2 6.05831 45.8208 29.2732
23 2 5.89517 15.5698 -5.55065
112 1 17.7344 45.3207 29.6267
36 2 -28.8439 -72.0405 -39.271
85 1 -26.8124 -30.5515 -0.988468
113 2 16.796 44.6582 29.4648
38 2 36.3206 -23.2847 -6.09793
86 2 -26.9629 -30.6139 -2.13697
177 2 89.5054 43.5725 -0.649118
226 1 7.00772 45.2318 29.5851
228 2 7.95713 44.6428 29.897
22 1 5.51385 15.1627 -4.53357
37 1 37.2887 -23.4824 -6.70555
24 2 5.13253 14.7555 -3.5165
179 2 15.5936 -34.0181 -72.7191
229 1 -59.9188 -47.7879 -28.2053
26 2 49.1096 -42.5024 81.259
230 2 -61.0198 -47.4235 -28.1822
231 2 -58.8178 -48.1524 -28.2283
257 2 75.4243 27.5162 52.9343
258 2 77.176 27.4927 51.4133
216 2 73.8274 25.7364 -26.2098
256 1 76.3001 27.5044 52.1738
119 2 -22.4653 -51.1901 45.5203
120 2 -22.9205 -49.2234 46.6637
97 1 38.3929 33.6551 50.1981
19 1 87.4172 -12.2079 51.2986
190 1 8.12648 -7.41629 -20.66
214 1 73.7137 26.1185 -25.1205
192 2 8.1675 -8.3251 -21.3797
232 1 16.8004 26.9385 13.9598
20 2 87.0571 -11.1052 51.3028
118 1 -22.6929 -50.2067 46.092
21 2 87.7773 -13.3105 51.2943
191 2 8.08546 -6.50749 -19.9402
147 2 15.2952 30.194 15.2568
99 2 37.6148 34.4657 49.9097
98 2 39.1709 32.8445 50.4866
145 1 14.3827 29.6113 14.8404
146 2 13.4702 29.0286 14.424
233 2 15.9242 27.434 13.3832
215 2 73.6 26.5006 -24.0311
27 2 46.8605 -41.9336 81.2792
95 2 36.1191 32.0984 48.067
69 2 0.0750403 -12.9144 10.3611
234 2 17.6765 26.4429 14.5363
25 1 47.9851 -42.218 81.2691
47 2 -70.659 -84.8877 60.3056
90 2 9.16843 57.0595 61.9538
237 2 -22.4295 54.5896 21.0277
66 2 6.93582 35.3177 -12.2798
31 1 -32.8584 30.6673 -10.6002
88 1 10.0396 57.4089 61.2722
33 2 -33.5712 31.1508 -9.82323
89 2 10.9107 57.7582 60.5906
50 2 52.0709 68.0063 26.0602
203 2 10.4848 -13.4006 21.0431
108 2 3.64383 35.7359 93.9083
107 2 3.01966 33.6618 93.077
106 1 3.33174 34.6988 93.4927
204 2 9.43775 -14.9324 22.4358
202 1 9.96128 -14.1665 21.7395
115 1 -22.2567 -78.52 19.7786
294 2 -29.9787 -3.75787 -45.7179
116 2 -21.4552 -78.5689 18.9414
117 2 -23.0582 -78.471 20.6157
73 1 17.1035 -8.54679 -11.3084
49 1 53.1201 67.613 25.7604
75 2 15.9756 -8.81795 -11.3006
46 1 -70.3707 -85.9065 60.7794
32 2 -32.1456 30.1837 -11.3771
48 2 -70.0823 -86.9253 61.2532
269 2 39.4895 -12.752 26.7302
30 2 114.313 94.8579 33.1879
41 2 50.7572 28.1291 64.7986
268 1 40.2642 -12.7638 27.5935
29 2 113.611 92.6764 32.8266
28 1 113.962 93.7671 33.0073
82 1 -71.9192 20.4147 -0.400364
34 1 -28.124 -72.2455 -38.3849
270 2 41.039 -12.7755 28.4567
40 1 51.1338 27.3561 65.5772
293 2 -29.9681 -3.00459 -43.5236
292 1 -29.9734 -3.38123 -44.6207
42 2 51.5104 26.5832 66.3559
35 2 -27.404 -72.4505 -37.4988
225 2 54.0577 19.2687 33.1468
84 2 -71.3668 21.4176 -0.214142
188 2 70.5701 43.1497 38.159
170 2 21.9537 16.9862 41.7015
194 2 95.0496 -0.00679746 116.755
187 1 70.3488 44.1086 38.7733
189 2 70.1275 45.0674 39.3875
297 2 61.648 1.46048 -70.9524
296 2 63.1101 1.59576 -69.1563
295 1 62.379 1.52812 -70.0544
93 2 -14.88 14.9994 37.849
196 1 29.1436 77.514 7.66986
129 2 -6.99689 9.34363 -28.4385
128 2 -4.84113 9.04065 -29.2406
198 2 28.4593 77.0112 6.87949
127 1 -5.91901 9.19214 -28.8395
197 2 29.8278 78.0167 8.46023
282 2 23.1536 -23.3221 37.2272
169 1 22.6653 16.1261 42.0169
91 1 -15.2617 15.3141 36.7998
280 1 22.4397 -23.5484 38.113
281 2 21.7257 -23.7746 38.9989
171 2 23.3769 15.266 42.3322
288 2 63.1042 12.041 42.8804
109 1 70.9539 51.4034 -33.7218
110 2 71.8506 50.6721 -33.6395
111 2 70.0573 52.1348 -33.8041
286 1 62.4479 11.4914 43.6631
287 2 61.7916 10.9417 44.4459
209 2 21.041 81.2765 17.1734
208 1 21.0485 80.1381 16.9508
210 2 21.0559 78.9997 16.7281
124 1 26.497 39.6049 82.1214
126 2 26.5742 38.5327 82.5573
264 2 -4.26449 112.309 46.2326
206 2 -2.26445 16.5937 11.5297
262 1 -5.19517 112.782 46.7377
263 2 -6.12585 113.256 47.2428
125 2 26.4197 40.6771 81.6854
1 1 31.6858 44.8763 14.2941
2 2 31.0643 45.5018 15.0478
3 2 32.3072 44.2508 13.5404
122 2 -17.353 51.6165 -58.3542
123 2 -17.9041 51.9671 -60.5803
205 1 -1.78451 17.5474 11.9832
121 1 -17.6285 51.7918 -59.4672
4 1 25.9039 -24.691 -12.8663
5 2 26.7192 -23.9328 -12.5405
283 1 22.0318 41.2214 -47.1754
284 2 22.4354 42.2821 -47.415
285 2 21.6281 40.1606 -46.9359
266 2 36.0818 11.2951 -14.0321
6 2 25.0887 -25.4492 -13.1921
71 2 106.037 13.279 -15.8052
70 1 105.039 13.035 -16.344
72 2 104.041 12.791 -16.8827
255 2 -0.51475 6.76446 23.4318
176 2 91.3577 42.1848 -0.490155
273 2 28.5822 4.94118 104.838
175 1 90.4316 42.8787 -0.569637
92 2 -15.6434 15.6288 35.7506
271 1 27.7596 4.95502 104.021
272 2 26.937 4.96886 103.203
77 2 65.0815 3.21569 29.9878
78 2 66.7938 2.91206 31.5235
76 1 65.9376 3.06387 30.7557
186 2 -0.806125 37.2818 -2.47425
184 1 -1.87402 37.726 -2.38545
185 2 -2.94192 38.1702 -2.29665
182 2 -1.87354 -21.4607 103.302
80 2 24.8035 10.721 -78.7909
81 2 26.3506 11.7976 -77.4382
79 1 25.577 11.2593 -78.1146
10 1 -5.1825 17 32.5372
224 2 55.0651 17.1963 32.8778
183 2 -0.979689 -22.7537 105.008
9 2 -6.51717 7.65627 33.8741
114 2 18.6728 45.9831 29.7887
181 1 -1.42661 -22.1072 104.155
8 2 -4.35633 7.71309 33.0315
11 2 -5.4069 15.9019 32.8362
7 1 -5.43675 7.68468 33.4528
300 2 20.0571 -0.784349 8.61513
61 1 33.4661 -2.60904 36.5046
238 1 -1.09392 -16.612 75.3948
193 1 95.5644 -0.197325 115.733
239 2 -0.738809 -17.1891 76.3363
289 1 27.0569 27.2388 -32.8786
290 2 27.9147 26.7755 -32.2501
291 2 26.199 27.7022 -33.507
63 2 33.4537 -1.7356 37.2678
161 2 -42.177 -3.67948 -66.9117
160 1 -41.6901 -4.56979 -67.4738
240 2 -1.44903 -16.0348 74.4534
162 2 -41.2032 -5.4601 -68.0358
195 2 96.0793 -0.387852 114.711
166 1 60.2837 -41.8629 35.9889
168 2 60.6027 -41.091 36.7939
159 2 -12.934 22.8461 83.4509
299 2 19.8908 -2.81028 9.73332
67 1 -1.01393 -13.1728 10.666
157 1 -13.5223 21.8596 83.2889
158 2 -14.1106 20.8731 83.1269
102 2 55.9984 -12.9892 46.6699
101 2 54.6081 -11.9909 48.2361
132 2 -38.9906 -13.1661 88.982
130 1 -38.0749 -13.2076 89.6928
54 2 -12.3378 -7.05926 -22.0012
52 1 -12.0633 -7.70371 -22.9258
53 2 -11.7888 -8.34816 -23.8505
165 2 29.4507 32.1224 53.8781
96 2 34.8092 33.8687 48.7969
163 1 29.3903 31.5083 52.8959
164 2 29.3298 30.8941 51.9137
94 1 35.4641 32.9836 48.432
17 2 -13.4176 67.9206 14.3141
100 1 55.3032 -12.49 47.453
16 1 -12.3278 67.9734 14.7078
18 2 -11.2379 68.0263 15.1015
207 2 -1.30457 18.5011 12.4367
68 2 -2.1029 -13.4313 10.9708
298 1 19.974 -1.79732 9.17423
137 2 21.3678 19.9634 20.1308
274 1 57.8243 -14.2187 -49.4997
275 2 58.8874 -14.2282 -49.0358
59 2 28.5385 27.7752 -12.309
247 1 69.1238 55.9992 -51.9809
249 2 69.8408 55.9571 -51.07
248 2 68.4067 56.0413 -52.8918
74 2 18.2313 -8.27562 -11.3163
241 1 -9.39423 91.7723 25.608
242 2 -9.46723 92.4358 26.5567
58 1 29.48 27.1753 -11.994
138 2 21.3436 21.7976 18.7105
60 2 30.4215 26.5753 -11.6791
136 1 21.3557 20.8805 19.4206
276 2 56.7611 -14.2093 -49.9636
51 2 54.1694 67.2196 25.4606
131 2 -37.1591 -13.2491 90.4036
243 2 -9.32123 91.1087 24.6593
245 2 -51.8155 18.2547 -9.66127
12 2 -4.95811 18.0981 32.2383
244 1 -51.309 18.5529 -8.66117
222 2 -43.4571 -12.0973 29.0299
246 2 -50.8026 18.8512 -7.66107
221 2 -43.8547 -14.3683 29.2879
154 1 -8.42973 35.599 34.0547
220 1 -43.6559 -13.2328 29.1589
223 1 54.5614 18.2325 33.0123
55 1 33.4759 23.0346 33.56
57 2 32.8289 23.4551 32.6939
56 2 34.1229 22.6141 34.4262
201 2 -40.8053 61.8195 -7.38325
199 1 -41.5345 62.7206 -7.42835
200 2 -42.2636 63.6216 -7.47345
83 2 -72.4715 19.4118 -0.586587
155 2 -9.03246 35.349 33.0956
62 2 33.4786 -3.48248 35.7413
156 2 -7.82701 35.8489 35.0138
167 2 59.9647 -42.6349 35.184
ITEM: TIMESTEP
20000
ITEM: NUMBER OF ATOMS
300
ITEM: BOX BOUNDS pp pp pp
0.0000000000000000e+00 3.6000000000000000e+01
0.0000000000000000e+00 3.6000000000000000e+01
0.0000000000000000e+00 3.6000000000000000e+01
ITEM: ATOMS id type xu yu zu
232 1 1.30623 39.613 7.77082
234 2 2.26396 40.1668 8.11965
233 2 0.348497 39.0592 7.42199
108 2 36.829 16.0079 110.017
217 1 5.02247 12.1515 36.8182
142 1 53.5258 -22.5702 3.14232
218 2 4.98889 10.9921 36.8016
89 2 7.73245 72.617 75.9042
219 2 5.05606 13.3109 36.8348
144 2 52.9515 -21.6296 3.50442
90 2 7.59279 74.787 76.7129
88 1 7.66262 73.702 76.3086
141 2 5.9285 44.3859 8.56604
97 1 38.5704 36.4309 78.3223
99 2 38.7657 37.1809 77.4591
264 2 0.0463947 119.274 48.5247
66 2 3.57141 54.0779 -26.9234
159 2 -33.7568 13.7423 86.781
221 2 -35.0077 -31.5876 16.7442
174 2 -28.7001 16.84 -25.1593
158 2 -35.0585 14.7212 88.4333
249 2 78.6097 53.0224 -57.4541
139 1 5.31936 44.0725 9.50216
247 1 77.6876 52.58 -56.9068
157 1 -34.4076 14.2318 87.6071
172 1 -28.5991 17.7185 -25.91
140 2 4.71022 43.7591 10.4383
248 2 76.7655 52.1376 -56.3594
215 2 76.4013 36.137 -24.1148
225 2 53.3197 4.39582 24.1057
230 2 -64.4284 -71.2774 -47.1616
224 2 53.6866 5.7667 22.2703
229 1 -64.2025 -71.4021 -48.2926
231 2 -63.9765 -71.5268 -49.4235
11 2 11.9419 16.101 24.657
223 1 53.5031 5.08126 23.188
10 1 11.8111 16.7352 23.6946
12 2 11.6803 17.3695 22.7322
169 1 35.9623 16.0689 -13.2928
171 2 36.9872 16.3644 -13.7488
206 2 5.47521 5.01687 -9.2187
150 2 -103.204 2.55708 34.4297
207 2 4.5175 3.96187 -7.38781
205 1 4.99636 4.48937 -8.30326
20 2 82.3951 -18.6909 65.733
148 1 -102.73 2.87823 33.421
146 2 16.2004 36.2623 29.6042
145 1 17.3509 36.1284 29.5415
149 2 -102.255 3.19938 32.4123
294 2 -21.4426 11.0753 -43.1081
71 2 110.359 4.85467 -1.80677
70 1 109.824 4.78436 -2.83377
8 2 14.4384 13.6965 27.0809
7 1 13.8491 13.82 28.0724
293 2 -21.7603 8.80525 -43.4665
72 2 109.289 4.71405 -3.86077
50 2 48.9098 72.5181 29.4392
292 1 -21.6015 9.94026 -43.2873
9 2 13.2597 13.9434 29.0639
166 1 81.3084 -40.3052 41.0866
167 2 80.8426 -41.085 41.8081
176 2 77.976 34.6577 7.25112
32 2 -35.6151 25.4506 6.78934
83 2 -58.7314 -2.76661 5.92138
65 2 1.40109 54.7507 -27.3919
82 1 -59.5535 -1.96233 5.77055
251 2 16.0169 29.8811 -64.9923
168 2 81.7741 -39.5255 40.365
121 1 -18.476 68.0903 -67.5243
177 2 79.8293 33.8899 6.08572
30 2 146.118 102.755 42.6974
250 1 15.9061 28.8531 -65.5183
252 2 15.7952 27.8252 -66.0443
28 1 146.363 102.147 41.7404
84 2 -60.3757 -1.15805 5.61972
29 2 146.608 101.539 40.7835
175 1 78.9027 34.2738 6.66842
122 2 -19.087 67.1138 -67.6604
98 2 38.3751 35.681 79.1854
64 1 2.48625 54.4143 -27.1576
124 1 41.3682 61.9416 85.9332
126 2 41.7823 61.466 84.9596
125 2 40.9541 62.4172 86.9068
256 1 74.9743 22.3613 46.8901
37 1 42.8476 -8.8348 9.48456
173 2 -28.498 18.5971 -26.6607
258 2 75.8459 23.0993 46.687
6 2 38.3599 -12.1207 -18.5492
257 2 74.1027 21.6233 47.0932
38 2 43.1939 -9.90611 9.76381
237 2 -31.4461 57.4667 15.5994
162 2 -33.1547 31.7317 -60.1718
216 2 78.4214 35.0427 -23.7922
69 2 2.5827 -10.6715 13.0101
39 2 42.5014 -7.76349 9.20531
214 1 77.4114 35.5898 -23.9535
67 1 1.71317 -10.5469 12.2525
161 2 -31.2482 32.747 -61.0186
160 1 -32.2015 32.2393 -60.5952
116 2 -35.988 -74.8348 15.2825
165 2 5.4112 29.2968 52.2827
164 2 3.35855 28.5109 53.0252
117 2 -34.6633 -76.7381 15.3525
115 1 -35.3256 -75.7865 15.3175
163 1 4.38488 28.9039 52.6539
235 1 -32.4424 56.8753 15.5433
5 2 36.9187 -10.334 -18.8854
4 1 37.6393 -11.2274 -18.7173
236 2 -33.4387 56.2839 15.4871
68 2 0.843635 -10.4222 11.4949
183 2 8.35214 -44.1022 89.9526
136 1 6.26533 23.3544 18.8455
272 2 10.8828 -1.96475 96.441
138 2 5.62779 23.9716 18.0984
273 2 10.5263 -0.72464 98.369
137 2 6.90288 22.7372 19.5926
74 2 12.0714 -11.1868 -14.3022
181 1 7.86305 -43.3514 90.6892
60 2 36.5644 29.7786 -13.6216
73 1 11.4429 -10.6596 -15.1223
75 2 10.8144 -10.1324 -15.9425
179 2 12.9374 -50.8505 -84.7386
178 1 11.8313 -51.1134 -84.9687
180 2 10.7252 -51.3764 -85.1988
195 2 84.1763 29.8853 95.97
194 2 82.98 28.6931 94.3794
193 1 83.5781 29.2892 95.1747
182 2 7.37395 -42.6006 91.4259
287 2 53.6539 -0.275457 56.2995
271 1 10.7045 -1.3447 97.405
298 1 6.58368 -2.37786 -1.67636
282 2 11.3378 -3.62389 33.6603
285 2 17.8048 58.1464 -37.1915
21 2 80.7049 -17.1175 65.5092
19 1 81.55 -17.9042 65.6211
299 2 5.48365 -2.55239 -2.00049
300 2 7.68372 -2.20333 -1.35222
281 2 12.7678 -5.27176 34.4491
49 1 49.0704 71.4772 28.9532
280 1 12.0528 -4.44783 34.0547
51 2 49.231 70.4362 28.4673
279 2 -12.934 42.4169 43.3262
277 1 -13.9912 42.871 43.4733
278 2 -15.0485 43.325 43.6205
227 2 -0.970593 44.6992 44.6085
63 2 25.4365 8.91715 42.4368
100 1 60.0943 -21.8801 41.2448
101 2 59.1756 -22.2552 40.644
102 2 61.013 -21.5051 41.8456
103 1 26.3407 47.6897 80.6013
104 2 26.2265 48.0255 79.4968
61 1 26.3809 8.33724 42.0942
245 2 -39.9062 12.9413 -28.8237
143 2 54.1001 -23.5107 2.78023
95 2 -6.35269 44.998 44.5446
25 1 61.312 -35.1328 72.1736
107 2 35.1004 15.9481 111.563
244 1 -39.699 14.0826 -28.8144
96 2 -6.07677 42.7539 44.0243
62 2 27.3253 7.75733 41.7515
106 1 35.9647 15.978 110.79
201 2 -76.7298 47.9016 2.23078
94 1 -6.21473 43.8759 44.2844
199 1 -76.8725 47.0285 1.48048
246 2 -39.4918 15.2239 -28.8052
48 2 -84.1045 -90.7803 40.4611
200 2 -77.0151 46.1554 0.730175
213 2 34.1263 80.3273 122.933
190 1 -14.6659 0.2101 -19.7466
153 2 28.3338 3.82406 10.3787
152 2 28.2791 5.64695 11.8127
151 1 28.3065 4.7355 11.0957
54 2 -12.1287 -22.3682 -23.2428
23 2 -5.48051 16.6425 -25.1852
220 1 -36.1311 -31.3665 16.5581
196 1 28.3418 85.981 13.8504
197 2 28.0964 87.0688 13.5311
52 1 -11.1946 -23.0553 -23.2125
53 2 -10.2605 -23.7424 -23.1822
198 2 28.5871 84.8931 14.1698
226 1 -1.70514 44.4675 45.4758
44 2 60.6036 16.8832 48.5263
24 2 -4.87038 15.7977 -23.1124
262 1 -1.01381 119.148 48.9782
22 1 -5.17544 16.2201 -24.1488
87 2 -2.57491 -55.5198 -24.7694
228 2 -2.4397 44.2358 46.3432
263 2 -2.07401 119.022 49.4318
43 1 60.7126 17.9728 48.1438
86 2 -1.37357 -55.1876 -26.7262
212 2 32.4822 80.49 124.562
85 1 -1.97424 -55.3537 -25.7478
211 1 33.3042 80.4086 123.747
105 2 26.4548 47.3539 81.7057
14 2 19.3442 89.3402 -59.0915
113 2 23.1254 38.038 53.9228
222 2 -37.2546 -31.1454 16.3721
191 2 -14.4366 0.971089 -20.5916
260 2 -12.9436 73.7565 62.0142
187 1 59.4505 51.8642 55.2178
189 2 59.5987 51.4765 56.3009
112 1 23.0265 37.3867 54.8776
114 2 22.9277 36.7353 55.8324
170 2 34.9374 15.7735 -12.8369
259 1 -12.47 72.9483 62.6983
188 2 59.3022 52.2519 54.1346
133 1 66.5902 113.927 -76.3174
135 2 67.4046 113.614 -75.5529
134 2 65.7759 114.241 -77.0818
276 2 26.36 1.70182 -40.2178
92 2 -47.4489 15.8616 33.1382
40 1 58.2409 18.0113 100.188
274 1 26.5465 2.83908 -40.0857
275 2 26.7331 3.97633 -39.9536
240 2 -15.7523 -19.192 70.0185
91 1 -47.9353 15.3684 32.2077
238 1 -14.6676 -18.7893 70.1005
93 2 -48.4217 14.8753 31.2772
147 2 18.5015 35.9945 29.4789
42 2 58.9399 17.112 100.408
239 2 -13.5828 -18.3866 70.1826
119 2 -5.08798 -35.7496 66.9256
27 2 62.0836 -34.298 71.9428
47 2 -82.5168 -89.1297 40.0907
154 1 -12.5949 59.5579 41.6363
46 1 -83.3106 -89.955 40.2759
295 1 68.6185 -10.4618 -64.9276
76 1 65.4169 -9.28429 40.0128
155 2 -12.5493 58.6985 42.414
33 2 -36.5799 23.3698 6.44015
132 2 -43.1032 -9.80196 109.293
296 2 68.552 -10.022 -65.999
78 2 64.3207 -8.91156 40.084
77 2 66.513 -9.65701 39.9415
156 2 -12.6406 60.4174 40.8586
255 2 -12.1408 -6.38563 42.2177
253 1 -12.1688 -7.40246 42.7753
254 2 -12.1968 -8.41929 43.3328
123 2 -17.8649 69.0669 -67.3882
297 2 68.685 -10.9016 -63.8563
31 1 -36.0975 24.4102 6.61475
130 1 -42.9442 -8.91903 108.558
26 2 60.5404 -35.9677 72.4045
265 1 57.084 -9.2615 -20.4343
267 2 58.1988 -8.99323 -20.2592
1 1 31.2159 29.5012 11.1964
202 1 27.8452 -47.8155 46.9851
203 2 27.3129 -48.5421 46.2542
3 2 31.9156 29.7469 10.3044
17 2 -13.0083 66.6639 9.96348
204 2 28.3774 -47.0888 47.716
110 2 64.3554 56.6161 -19.5834
243 2 -5.43637 93.6568 47.9746
18 2 -15.25 66.7693 9.3752
16 1 -14.1292 66.7166 9.66934
2 2 30.5162 29.2554 12.0884
186 2 -3.0192 24.028 16.6148
185 2 -2.7958 26.3146 16.2929
184 1 -2.9075 25.1713 16.4538
242 2 -3.21081 94.0896 47.4827
111 2 63.8189 57.4382 -21.6854
266 2 55.9691 -9.52978 -20.6094
109 1 64.0871 57.0271 -20.6344
241 1 -4.32359 93.8732 47.7287
15 2 20.4066 91.3796 -58.7836
13 1 19.8754 90.3599 -58.9376
45 2 60.8215 19.0625 47.7612
192 2 -14.8951 -0.550889 -18.9017
210 2 30.9081 102.899 20.899
288 2 54.6072 -2.35654 56.6772
208 1 30.8594 102.46 19.8263
270 2 29.6473 -10.4426 24.8593
209 2 30.8106 102.021 18.7536
34 1 -36.8388 -83.2327 -45.6902
36 2 -36.8378 -83.965 -46.5898
269 2 29.8024 -8.2098 25.4701
59 2 35.5584 29.8754 -15.7099
268 1 29.7249 -9.32618 25.1647
58 1 36.0614 29.827 -14.6657
56 2 29.3835 23.0811 26.2498
286 1 54.1306 -1.316 56.4884
80 2 20.8467 -10.1808 -79.1634
127 1 -13.6513 21.2052 -5.63223
129 2 -13.4852 20.305 -4.91978
41 2 57.542 18.9106 99.9681
291 2 54.1945 -5.89063 -37.1715
131 2 -42.7853 -8.0361 107.822
55 1 29.7539 23.265 27.3336
128 2 -13.8175 22.1054 -6.34469
120 2 -6.11588 -36.7659 68.7403
57 2 30.1244 23.4489 28.4173
79 1 21.6168 -9.9968 -80.0111
81 2 22.3869 -9.81279 -80.8588
284 2 18.3869 57.4597 -39.3297
283 1 18.0959 57.803 -38.2606
290 2 55.4608 -7.81525 -36.898
118 1 -5.60193 -36.2577 67.833
35 2 -36.8398 -82.5004 -44.7906
289 1 54.8276 -6.85294 -37.0347
261 2 -11.9965 72.14 63.3825
ITEM: TIMESTEP
30000
ITEM: NUMBER OF ATOMS
300
ITEM: BOX BOUNDS pp pp pp
0.0000000000000000e+00 3.6000000000000000e+01
0.0000000000000000e+00 3.6000000000000000e+01
0.0000000000000000e+00 3.6000000000000000e+01
ITEM: ATOMS id type xu yu zu
8 2 5.58011 12.0332 36.0135
256 1 76.7197 43.1676 36.067
246 2 -25.8726 9.44802 -28.6967
257 2 77.7009 42.7601 36.5327
255 2 -27.4747 -32.4743 37.0625
253 1 -28.1891 -33.388 37.042
239 2 -21.5618 3.73976 74.9958
224 2 48.9288 6.42651 40.9621
47 2 -91.2108 -94.4649 39.9103
240 2 -22.3781 2.30255 73.3678
46 1 -91.9175 -93.8064 39.268
225 2 48.8803 8.09827 39.3543
52 1 -23.1918 -23.8863 -28.0758
254 2 -28.9035 -34.3017 37.0214
48 2 -92.6242 -93.1478 38.6257
237 2 -26.374 49.5456 7.96098
238 1 -21.97 3.02116 74.1818
54 2 -23.0986 -24.9934 -28.4095
53 2 -23.2851 -22.7793 -27.742
223 1 48.9045 7.26239 40.1582
245 2 -27.7401 9.85167 -30.0127
244 1 -26.8064 9.64985 -29.3547
143 2 74.7542 -31.5916 14.8948
142 1 74.2776 -31.7207 13.8452
261 2 -20.02 85.6591 81.6976
144 2 73.801 -31.8499 12.7955
168 2 82.7835 -29.8667 46.4354
106 1 41.9126 -21.4595 120.793
94 1 -26.0437 46.8618 46.4839
166 1 82.9446 -28.7536 46.1512
108 2 41.6284 -22.5777 120.673
42 2 72.7401 40.2251 125.385
235 1 -26.218 49.6986 9.10023
116 2 -61.4782 -98.6122 13.4033
117 2 -62.881 -96.7966 13.7469
69 2 7.46163 7.01532 14.7334
67 1 7.84218 7.98075 15.2518
34 1 -20.9543 -97.4959 -56.0612
68 2 8.22274 8.94618 15.7702
35 2 -20.2815 -98.2673 -56.6071
115 1 -62.1796 -97.7044 13.5751
95 2 -27.1471 46.5178 46.3853
36 2 -21.6271 -96.7245 -55.5154
96 2 -24.9402 47.2058 46.5824
266 2 80.7238 -31.4431 -19.7205
107 2 42.1969 -20.3413 120.913
236 2 -26.0621 49.8515 10.2395
167 2 83.1058 -27.6406 45.867
265 1 80.1792 -32.1105 -18.9436
259 1 -19.3188 84.7473 81.5479
267 2 79.6346 -32.7778 -18.1666
260 2 -18.6176 83.8354 81.3982
136 1 8.12834 38.793 24.3927
113 2 8.01888 42.2179 56.1364
137 2 8.98428 38.7134 25.1716
154 1 3.2242 43.2039 62.2285
268 1 38.1035 -26.1677 20.8402