ITEM: TIMESTEP
0
ITEM: NUMBER OF ATOMS
150
ITEM: BOX BOUNDS pp pp pp
0.0000000000000000e+00 3.6000000000000000e+01
0.0000000000000000e+00 3.6000000000000000e+01
0.0000000000000000e+00 3.6000000000000000e+01
ITEM: ATOMS id type xu yu zu
143 2 -19.6065 9.23493 0.147872
142 1 -20.3371 9.98067 0.653407
144 2 -21.0678 10.7264 1.15894
137 2 76.1134 42.4174 83.2142
138 2 78.3539 42.352 83.8127
136 1 77.2336 42.3847 83.5134
24 2 -30.0056 37.7498 49.3346
22 1 -29.8293 37.6806 48.1902
23 2 -29.653 37.6114 47.0457
50 2 -33.9776 44.9691 16.7944
90 2 15.9331 4.98887 49.9807
88 1 16.5049 4.42094 50.815
114 2 87.6333 36.8132 14.8377
112 1 87.4468 36.5281 15.9466
89 2 17.0767 3.85301 51.6494
113 2 87.2603 36.243 17.0554
34 1 3.85648 85.1808 -60.4646
36 2 2.81452 85.021 -60.9487
35 2 4.89843 85.3406 -59.9804
4 1 -63.9843 -18.8793 50.7314
5 2 -63.7731 -19.7811 50.0331
49 1 -34.0866 45.6846 17.701
72 2 -35.1786 39.2652 61.3348
70 1 -35.0373 39.772 62.3686
32 2 47.0775 -107.621 58.7122
84 2 53.065 44.0569 60.2726
51 2 -34.1956 46.4001 18.6075
42 2 12.6052 51.5399 -86.9439
41 2 14.2484 53.1752 -86.8537
83 2 53.0439 46.3613 60.54
82 1 53.0544 45.2091 60.4063
40 1 13.4268 52.3576 -86.8988
71 2 -34.896 40.2788 63.4025
20 2 9.05608 77.9705 -4.7198
19 1 9.58619 78.4335 -3.79775
21 2 10.1163 78.8966 -2.8757
104 2 6.14106 48.0899 -1.57516
103 1 6.45411 49.0063 -2.2138
105 2 6.76716 49.9227 -2.85244
12 2 52.5494 10.6364 -43.0968
9 2 -56.9492 47.8363 69.0256
7 1 -57.3174 47.9724 67.9341
8 2 -57.6857 48.1086 66.8425
11 2 52.6394 9.42406 -41.1208
10 1 52.5944 10.0302 -42.1088
77 2 -62.3935 48.3803 -39.7964
76 1 -61.6244 48.9477 -40.4537
78 2 -60.8553 49.5152 -41.1111
135 2 42.0803 -15.7472 -107.829
133 1 41.0949 -15.5752 -107.242
134 2 40.1094 -15.4032 -106.654
3 2 6.09271 24.9362 39.7898
1 1 6.5296 24.1231 40.4924
2 2 6.96649 23.3101 41.195
87 2 -90.0105 25.3959 5.97558
74 2 15.0441 26.7711 4.95716
95 2 52.9543 -85.0576 39.2501
94 1 53.4438 -84.3325 38.4884
96 2 53.9333 -83.6073 37.7267
25 1 6.21601 137.019 38.073
26 2 7.12498 137.047 38.7931
27 2 5.30703 136.99 37.3529
73 1 15.5905 27.5912 4.34528
75 2 16.1369 28.4114 3.73339
57 2 -18.5047 31.9785 77.4471
6 2 -64.1954 -17.9774 51.4297
66 2 44.1534 -39.7252 11.1288
64 1 44.0471 -40.8755 11.0236
65 2 43.9408 -42.0259 10.9185
122 2 144.194 -39.7533 9.85801
58 1 16.3051 55.9573 93.5381
59 2 15.7446 55.8964 94.5519
29 2 47.4174 55.4849 60.2592
28 1 48.3772 54.8389 60.1749
60 2 16.8656 56.0183 92.5243
30 2 49.337 54.193 60.0905
111 2 4.95951 67.1932 -13.748
110 2 3.10679 66.4415 -12.5712
109 1 4.03315 66.8173 -13.1596
33 2 49.1749 -108.607 58.82
31 1 48.1262 -108.114 58.7661
79 1 22.1488 -95.0673 87.6725
129 2 -11.6965 82.2111 13.337
127 1 -12.6867 82.2525 12.7343
128 2 -13.677 82.2939 12.1315
80 2 22.5825 -94.4268 88.537
81 2 21.7151 -95.7078 86.808
13 1 64.2171 -21.1794 -24.4554
14 2 64.872 -21.0653 -23.5047
15 2 63.5623 -21.2936 -25.4061
17 2 25.345 2.95231 -17.4962
16 1 26.3297 3.52697 -17.7102
139 1 -2.24528 -33.3913 62.0479
140 2 -2.3232 -33.0006 60.9585
18 2 27.3143 4.10162 -17.9242
150 2 66.3644 16.8607 -15.8036
37 1 102.754 -55.7051 -9.16448
148 1 65.3021 16.7022 -16.2415
39 2 102.56 -54.5868 -9.40369
149 2 64.2397 16.5436 -16.6795
107 2 -89.0385 79.6319 70.9079
106 1 -89.0702 80.6608 70.3731
63 2 -38.2138 -65.2256 -4.07711
61 1 -38.1244 -66.051 -4.88731
62 2 -38.035 -66.8763 -5.69751
131 2 64.6675 73.5724 -41.4795
130 1 64.5596 73.0548 -42.512
141 2 -2.16736 -33.782 63.1374
132 2 64.4518 72.5373 -43.5446
108 2 -89.1018 81.6897 69.8383
38 2 102.949 -56.8234 -8.92526
85 1 -89.7124 24.6572 6.81885
86 2 -89.4142 23.9186 7.66212
56 2 -16.7956 31.1141 76.1378
55 1 -17.6502 31.5463 76.7925
115 1 60.4872 -45.5331 17.8647
48 2 129.825 -13.3491 46.4871
147 2 56.7042 -45.8668 14.7697
46 1 129.485 -14.3103 45.934
47 2 129.145 -15.2715 45.3809
67 1 -3.21122 -15.616 81.8676
69 2 -2.07629 -15.5301 82.0916
68 2 -4.34614 -15.7018 81.6436
146 2 55.7431 -44.1197 13.5838
117 2 60.025 -44.4798 17.7145
145 1 56.2237 -44.9933 14.1768
93 2 56.1968 -7.24213 88.7989
91 1 55.7817 -8.00051 89.5724
121 1 143.373 -39.3063 10.5445
123 2 142.551 -38.8592 11.231
97 1 -14.2024 23.2067 -10.6417
99 2 -13.6844 22.1701 -10.6942
98 2 -14.7205 24.2432 -10.5892
116 2 60.9495 -46.5863 18.0148
100 1 32.5142 20.9616 -85.8642
101 2 32.9567 21.149 -84.8084
102 2 32.0717 20.7742 -86.92
53 2 -7.92061 -51.8993 19.5555
52 1 -7.37841 -51.0051 20.0576
54 2 -6.83621 -50.1109 20.5597
92 2 55.3667 -8.7589 90.3458
119 2 -15.0311 141.564 -10.1071
118 1 -14.6372 141.419 -9.02574
125 2 34.0563 -3.49144 60.5623
126 2 32.3781 -5.01768 61.0488
124 1 33.2172 -4.25456 60.8055
120 2 -14.2434 141.273 -7.94441
45 2 54.4214 33.9609 -40.126
44 2 54.8359 31.939 -41.1856
43 1 54.6286 32.95 -40.6558
ITEM: TIMESTEP
10000
ITEM: NUMBER OF ATOMS
150
ITEM: BOX BOUNDS pp pp pp
0.0000000000000000e+00 3.6000000000000000e+01
0.0000000000000000e+00 3.6000000000000000e+01
0.0000000000000000e+00 3.6000000000000000e+01
ITEM: ATOMS id type xu yu zu
24 2 -65.7788 81.2911 75.3662
22 1 -66.3604 80.8891 74.4466
106 1 -94.8492 76.0382 114.879
8 2 -69.6063 49.7373 116.615
9 2 -71.812 50.4536 116.679
18 2 11.1157 42.4266 -32.973
16 1 11.6025 42.9996 -32.0897
17 2 12.0893 43.5727 -31.2064
23 2 -66.942 80.4871 73.527
7 1 -70.7092 50.0955 116.647
107 2 -95.7737 75.7422 114.244
108 2 -93.9247 76.3343 115.514
45 2 47.5974 9.70652 -21.6638
130 1 49.8669 110.266 -61.0605
131 2 49.6543 109.223 -60.5979
44 2 47.5766 11.9691 -22.1765
132 2 50.0795 111.308 -61.523
43 1 47.587 10.8378 -21.9201
28 1 0.354436 82.0316 82.0421
2 2 9.46064 16.4731 11.4455
1 1 9.81705 17.5759 11.4946
29 2 0.754575 82.7743 82.8383
78 2 -62.1446 48.7927 -24.8074
76 1 -62.1479 47.6335 -24.8487
77 2 -62.1511 46.4742 -24.89
30 2 -0.0457043 81.289 81.2459
83 2 41.2392 52.7633 61.1884
75 2 11.4247 5.50493 -13.5333
73 1 12.2257 4.67049 -13.6213
74 2 13.0267 3.83604 -13.7093
150 2 51.8214 0.591176 -47.2898
148 1 52.8308 1.08304 -47.5811
146 2 80.808 2.42903 24.0081
133 1 75.4787 -18.13 -120.83
149 2 53.8401 1.57491 -47.8724
145 1 81.4371 2.49973 23.0361
82 1 41.9606 53.6663 61.0903
147 2 82.0662 2.57042 22.0641
134 2 76.3343 -17.8999 -121.579
135 2 74.6232 -18.3602 -120.081
38 2 84.7785 -62.9679 -0.479303
128 2 41.2386 77.7735 -8.41736
127 1 41.5976 78.8219 -8.07433
37 1 84.3156 -64.0315 -0.478242
110 2 7.00123 73.1026 -0.453504
129 2 41.9567 79.8702 -7.73131
109 1 7.89612 72.4352 -0.768596
65 2 53.9647 -31.0278 -5.22649
39 2 83.8527 -65.0951 -0.477181
122 2 154.647 -39.355 1.20024
121 1 154.317 -39.3823 0.0882925
69 2 -18.4035 -4.3363 110.692
67 1 -18.2055 -3.69394 109.747
40 1 6.27342 33.5315 -94.9343
42 2 7.08396 34.3325 -95.1511
105 2 5.61318 59.4056 -57.2028
104 2 4.94986 60.9274 -58.8234
103 1 5.28152 60.1665 -58.0131
41 2 5.46289 32.7304 -94.7176
3 2 10.1735 18.6787 11.5438
141 2 -18.6796 -17.3825 81.4583
139 1 -18.3151 -17.0944 82.5212
89 2 6.32366 30.3602 24.0712
88 1 5.51563 31.1065 23.7028
90 2 4.7076 31.8528 23.3345
33 2 37.823 -158.258 95.0167
31 1 37.9935 -157.209 94.5526
94 1 44.8731 -120.908 23.1787
32 2 38.1641 -156.159 94.0885
96 2 45.866 -120.44 23.5531
95 2 43.8801 -121.377 22.8043
84 2 42.6821 54.5694 60.9922
111 2 8.791 71.7677 -1.08369
123 2 153.988 -39.4095 -1.02365
13 1 77.4292 -38.1365 -43.5247
14 2 78.0439 -38.0859 -44.5071
15 2 76.8144 -38.187 -42.5423
48 2 127.977 13.0753 3.37822
57 2 -15.2723 48.9947 78.5843
56 2 -13.5127 47.6821 79.3349
46 1 129.053 13.2736 2.99234
47 2 130.129 13.4718 2.60646
35 2 -10.2669 118.045 -65.2315
99 2 -16.2971 16.2642 -27.5071
36 2 -9.8999 115.862 -65.9265
116 2 62.0662 6.89847 35.8266
60 2 -5.54429 85.2068 109.861
97 1 -16.3758 16.6754 -28.589
98 2 -16.4544 17.0866 -29.6708
34 1 -10.0834 116.954 -65.579
55 1 -14.3925 48.3384 78.9596
59 2 -7.50005 86.4505 109.758
58 1 -6.52217 85.8286 109.81
115 1 62.7052 7.52927 36.561
70 1 -40.5652 40.8657 43.785
71 2 -40.4697 41.5479 42.8517
117 2 63.3441 8.16006 37.2955
72 2 -40.6606 40.1834 44.7183
120 2 18.2035 113.027 17.5144
118 1 18.4046 112.138 16.7977
144 2 -45.0878 38.1369 -23.1266
143 2 -43.2828 37.1468 -24.1962
142 1 -44.1853 37.6419 -23.6614
126 2 60.8201 -66.7158 87.1524
124 1 60.6954 -66.8513 86.0071
125 2 60.5708 -66.9868 84.8618
119 2 18.6057 111.248 16.0811
66 2 55.99 -32.1419 -5.42469
138 2 63.5647 49.2171 105.624
137 2 61.5022 48.5829 104.772
52 1 -8.0985 -58.0203 30.6758
136 1 62.5335 48.9 105.198
64 1 54.9773 -31.5849 -5.32559
62 2 -39.1089 -69.8094 -7.42291
61 1 -39.9358 -69.7876 -8.23615
63 2 -40.7627 -69.7658 -9.04938
53 2 -8.45663 -59.1219 30.7371
114 2 57.7996 11.6231 34.8418
112 1 58.9171 11.6614 35.1507
113 2 60.0345 11.6998 35.4597
54 2 -7.74038 -56.9186 30.6145
68 2 -18.0074 -3.05158 108.801
102 2 58.9494 -7.61639 -100.867
100 1 58.3872 -7.95335 -99.9101
93 2 63.9962 -8.13293 73.0852
87 2 -85.1142 29.3465 13.2833
86 2 -86.0843 30.5032 15.0448
85 1 -85.5993 29.9249 14.164
101 2 57.8251 -8.29031 -98.953
140 2 -17.9506 -16.8063 83.5841
10 1 64.7483 -16.3496 -51.7506
11 2 63.7581 -16.7971 -51.3447
12 2 65.7386 -15.9021 -52.1564
26 2 35.0293 134.034 22.2694
49 1 -15.8374 31.6788 24.2775
25 1 35.1634 134.083 21.1182
27 2 35.2974 134.131 19.967
4 1 -75.3555 -38.7494 62.9192
6 2 -74.4577 -39.4129 63.2344
50 2 -14.6946 31.8735 24.3204
51 2 -16.9801 31.4841 24.2347
5 2 -76.2533 -38.086 62.6041
81 2 63.2374 -125.428 67.2175
91 1 64.1465 -8.54506 72.0114
19 1 29.3558 58.6876 27.5522
21 2 29.0787 59.8127 27.4983
20 2 29.6328 57.5625 27.6061
92 2 64.2967 -8.95719 70.9375
79 1 63.6051 -125.417 68.3176
80 2 63.9729 -125.405 69.4177
ITEM: TIMESTEP
20000
ITEM: NUMBER OF ATOMS
150
ITEM: BOX BOUNDS pp pp pp
0.0000000000000000e+00 3.6000000000000000e+01
0.0000000000000000e+00 3.6000000000000000e+01
0.0000000000000000e+00 3.6000000000000000e+01
ITEM: ATOMS id type xu yu zu
101 2 50.1639 8.05817 -100.532
1 1 7.3832 12.6157 0.748969
3 2 6.97057 12.4036 1.81214
100 1 49.5637 8.02919 -99.5393
39 2 47.2128 -58.7245 14.601
38 2 46.595 -60.3736 13.0907
129 2 45.5173 75.7779 9.30677
135 2 78.7657 -26.4325 -132.79
123 2 154.024 -31.799 -18.1426
127 1 44.948 75.2617 10.1757
37 1 46.9039 -59.549 13.8459
56 2 6.17001 118.97 90.1041
134 2 76.9666 -27.8942 -132.884
133 1 77.8662 -27.1634 -132.837
102 2 48.9634 8.00021 -98.5472
128 2 44.3786 74.7455 11.0445
116 2 71.9528 6.19391 62.0962
121 1 153.675 -31.0983 -17.2864
55 1 7.05969 118.818 90.8327
69 2 -54.9837 4.88539 132.896
16 1 0.32495 50.9281 -48.4534
122 2 153.327 -30.3976 -16.4301
17 2 0.762311 49.8798 -48.2179
18 2 -0.11241 51.9763 -48.6888
57 2 7.94938 118.666 91.5614
67 1 -54.2231 4.2098 133.453
25 1 38.0806 111.379 -1.43
106 1 -107.115 85.0477 136.555
108 2 -106.156 84.421 136.736
150 2 76.3266 13.564 -4.80932
149 2 76.6255 11.5851 -5.98282
148 1 76.476 12.5746 -5.39607
27 2 38.2434 112.156 -2.27537
2 2 7.79583 12.8278 -0.314204
26 2 37.9178 110.601 -0.584626
81 2 75.9963 -122.983 37.5455
79 1 74.9817 -122.73 38.0475
80 2 73.9671 -122.476 38.5494
114 2 87.2642 18.107 36.4924
112 1 87.7405 19.1297 36.2227
54 2 11.1261 -84.2791 6.96248
113 2 88.2168 20.1525 35.953
52 1 11.8842 -83.4897 7.34671
53 2 12.6423 -82.7002 7.73094
5 2 -62.8196 -45.2479 87.4762
4 1 -63.2797 -45.506 86.4431
6 2 -63.7398 -45.7641 85.41
71 2 -23.3366 25.3144 -21.367
126 2 51.0918 -37.056 86.9706
70 1 -22.993 25.1743 -20.268
125 2 53.1729 -37.2854 87.97
124 1 52.1324 -37.1707 87.4703
72 2 -22.6493 25.0342 -19.169
12 2 116.441 -50.1124 -84.1187
75 2 12.5558 23.1108 -10.2714
73 1 13.1999 24.0745 -10.2279
74 2 13.844 25.0383 -10.1843
146 2 83.9822 23.767 55.2798
147 2 85.6448 22.1494 55.3164
145 1 84.8135 22.9582 55.2981
10 1 115.314 -49.9971 -84.3697
11 2 114.188 -49.8817 -84.6207
136 1 53.9959 68.0374 129.856
82 1 81.5196 25.9773 61.9774
83 2 82.0667 26.4134 61.0521
137 2 53.1327 67.3285 129.543
93 2 51.4694 -44.7561 61.7593
91 1 51.0184 -45.0276 60.7256
92 2 50.5675 -45.2991 59.6919
84 2 80.9726 25.5412 62.9027
44 2 49.9141 32.869 -4.09114
43 1 49.3757 31.8466 -3.98857
13 1 53.0719 -49.2839 -42.1504
45 2 48.8374 30.8242 -3.88599
15 2 53.2971 -48.1488 -42.2307
14 2 52.8466 -50.4189 -42.0702
41 2 21.8092 1.68715 -105.242
40 1 21.9543 1.78115 -106.389
42 2 22.0994 1.87515 -107.536
131 2 58.5222 116.08 -28.1989
130 1 58.6444 117.232 -28.1255
132 2 58.7667 118.383 -28.0521
20 2 58.9198 50.6847 -28.1056
19 1 58.0169 50.8378 -28.8176
21 2 57.1139 50.991 -29.5295
144 2 -40.7972 44.8374 -21.8973
142 1 -39.7979 44.7032 -22.4708
143 2 -38.7986 44.5689 -23.0444
48 2 126.588 36.8024 13.6741
68 2 -53.4625 3.5342 134.01
115 1 71.507 5.12348 62.1288
36 2 -1.94835 88.7646 -45.8851
117 2 71.0613 4.05304 62.1615
34 1 -2.45228 87.9611 -45.2171
107 2 -108.074 85.6744 136.375
35 2 -2.95621 87.1577 -44.5492
87 2 -81.1281 53.0601 -6.69018
85 1 -81.8697 53.9441 -6.80894
104 2 30.6796 99.9929 -63.6802
94 1 56.3346 -147.674 0.0867157
95 2 55.7564 -146.767 0.52083
63 2 -40.7201 -83.1255 -27.3066
141 2 -40.4008 -13.8838 73.7619
139 1 -41.0307 -14.0195 72.7973
51 2 29.8751 28.0491 51.9253
62 2 -39.535 -84.2949 -25.6909
49 1 29.9042 27.7801 53.0533
120 2 20.2797 96.774 47.4906
33 2 26.4982 -160.005 89.9937
46 1 126.75 35.6824 13.4194
8 2 -49.3254 28.7635 124.518
119 2 20.4322 94.4655 47.6643
105 2 29.2275 101.056 -62.2159
103 1 29.9535 100.524 -62.948
47 2 126.912 34.5623 13.1647
118 1 20.356 95.6197 47.5774
111 2 -9.55259 71.4744 17.3051
7 1 -48.2846 28.6467 125.017
9 2 -47.2438 28.5299 125.516
61 1 -40.1276 -83.7102 -26.4988
76 1 -76.4294 57.9731 -51.0843
78 2 -75.712 57.6069 -51.919
77 2 -77.1469 58.3394 -50.2496
22 1 -115.955 90.5339 95.485
23 2 -116.435 90.8376 94.4735
24 2 -115.475 90.2302 96.4965
31 1 26.1418 -160.19 91.0821
32 2 25.7855 -160.375 92.1704
110 2 -8.57738 70.6627 19.2473
138 2 54.8592 68.7463 130.169
50 2 29.9334 27.5111 54.1813
109 1 -9.06498 71.0685 18.2762
90 2 -15.5578 -10.3904 32.2128
98 2 -40.5441 19.4568 -37.2394
86 2 -82.6112 54.8282 -6.9277
88 1 -15.2237 -9.63173 31.4014
59 2 -39.7436 97.8021 101.778
60 2 -41.0067 97.5807 103.711
58 1 -40.3751 97.6914 102.744
65 2 34.4569 -50.1414 -40.3937
66 2 32.851 -49.9944 -42.0616
64 1 33.654 -50.0679 -41.2276
89 2 -14.8897 -8.87309 30.5899
99 2 -42.7714 19.1261 -37.7984
97 1 -41.6578 19.2914 -37.5189
30 2 -40.3609 101.843 103.125
29 2 -41.3557 103.229 104.698
28 1 -40.8583 102.536 103.912
96 2 56.9129 -148.581 -0.347398
140 2 -41.6606 -14.1551 71.8327
ITEM: TIMESTEP
30000
ITEM: NUMBER OF ATOMS
150
ITEM: BOX BOUNDS pp pp pp
0.0000000000000000e+00 3.6000000000000000e+01
0.0000000000000000e+00 3.6000000000000000e+01
0.0000000000000000e+00 3.6000000000000000e+01
ITEM: ATOMS id type xu yu zu
67 1 -61.4513 8.803 148.959
128 2 41.5794 72.6897 2.96036
69 2 -60.9346 8.71998 149.995
129 2 41.5393 74.0198 4.8608
68 2 -61.968 8.88603 147.924
127 1 41.5593 73.3548 3.91058
146 2 85.7824 9.66431 44.4083
118 1 5.80153 109.659 83.3809
131 2 51.1979 109.01 -19.9536
132 2 49.8077 110.781 -19.3947
119 2 4.9744 110.4 83.7165
130 1 50.5028 109.895 -19.6741
147 2 84.0446 8.87845 45.7293
117 2 49.0254 36.3532 85.5788
120 2 6.62865 108.918 83.0453
145 1 84.9135 9.27138 45.0688
70 1 -22.8319 7.30702 -15.4086
62 2 -58.0431 -98.188 -12.3654
61 1 -57.0603 -97.6545 -12.6737
71 2 -22.1436 7.67337 -16.2675
72 2 -23.5202 6.94067 -14.5497
63 2 -56.0775 -97.121 -12.982
48 2 123.265 37.2001 -2.3228
74 2 11.4209 -27.6859 35.9868
42 2 13.7449 -20.6649 -116.774
46 1 123.505 37.7541 -1.33241
75 2 10.208 -29.6393 35.6778
47 2 123.745 38.3081 -0.342019
73 1 10.8144 -28.6626 35.8323
22 1 -134.742 125.618 140.242
24 2 -134.117 125.266 141.153
23 2 -135.368 125.971 139.331
27 2 52.476 80.8829 -40.4911
41 2 15.1473 -19.0245 -115.923
26 2 51.683 82.2871 -42.1591
40 1 14.4461 -19.8447 -116.348
25 1 52.0795 81.585 -41.3251
45 2 50.2885 65.8132 2.97848
43 1 50.8373 65.4499 3.93371
44 2 51.3861 65.0866 4.88894
111 2 -18.8768 54.9702 43.5699
109 1 -19.5132 54.4891 44.412
122 2 124.8 -15.8908 1.17095
30 2 -18.5616 90.2777 112.263
121 1 125.651 -16.3599 0.537119
60 2 -33.9676 99.9249 82.6009
138 2 44.5648 63.7563 154.609
110 2 -20.1497 54.008 45.254
49 1 49.0617 57.1207 89.6962
51 2 49.8713 56.6048 89.045
59 2 -35.1638 99.0147 84.3681
58 1 -34.5657 99.4698 83.4845
137 2 44.9907 65.3572 156.233
136 1 44.7778 64.5567 155.421
102 2 45.0737 35.5065 -97.1003
100 1 44.8176 34.4369 -96.7316
101 2 44.5616 33.3673 -96.3628
116 2 48.4321 35.5823 83.4726
115 1 48.7287 35.9678 84.5257
78 2 -57.2906 66.6252 -84.4508
112 1 72.5792 60.4137 21.432
113 2 72.4203 60.6018 20.2984
9 2 -70.252 31.7289 94.8489
7 1 -69.2732 32.1813 95.2765
8 2 -68.2943 32.6337 95.704
77 2 -58.8193 68.3171 -84.8783
76 1 -58.0549 67.4711 -84.6646
81 2 77.0223 -86.3785 -16.7178
79 1 77.8204 -85.7136 -17.2342
80 2 78.6185 -85.0488 -17.7506
114 2 72.7382 60.2256 22.5656
50 2 48.2522 57.6365 90.3474
34 1 13.9633 94.7737 -39.5745
36 2 12.8661 94.5445 -39.2757
35 2 15.0605 95.0029 -39.8733
95 2 51.2943 -125.201 -2.39491
94 1 50.3168 -124.583 -2.48362
96 2 49.3393 -123.964 -2.57232
142 1 -50.3532 39.1547 -31.8405
144 2 -51.0045 40.0854 -31.6055
143 2 -49.7019 38.2241 -32.0756
149 2 64.453 17.0498 4.04535
150 2 62.1341 17.0417 4.11867
148 1 63.2936 17.0458 4.08201
53 2 62.8493 -101.131 2.92126
52 1 62.1568 -100.814 2.0465
65 2 29.3382 -33.6804 -28.8994
54 2 61.4642 -100.496 1.17174
66 2 27.0977 -33.1636 -28.5905
64 1 28.218 -33.422 -28.7449
14 2 24.412 -67.2953 -58.8391
105 2 70.1254 113.416 -94.6622
103 1 69.058 113.109 -94.3267
104 2 67.9906 112.803 -93.9911
92 2 56.5587 -65.5347 48.0868
13 1 25.0335 -67.1876 -57.8656
91 1 57.4232 -65.929 47.4214
15 2 25.655 -67.0799 -56.8921
93 2 58.2877 -66.3233 46.7559
126 2 55.9357 -18.2391 93.225
83 2 91.2871 1.48679 62.788
82 1 92.084 0.668803 62.9914
38 2 67.8566 -57.5015 -8.14305
12 2 139.306 -67.7796 -114.281
10 1 139.797 -68.7673 -113.922
11 2 140.287 -69.755 -113.562
37 1 66.6998 -57.4301 -8.09414
39 2 65.543 -57.3587 -8.04524
87 2 -77.2486 -2.57436 40.5044
98 2 -46.9385 55.2363 -63.5768
97 1 -46.45 55.534 -64.5859
31 1 -8.93566 -157.466 73.4903
32 2 -8.06665 -156.766 73.8069
33 2 -9.80467 -158.166 73.1738
28 1 -17.4512 90.4796 112.531
86 2 -75.9266 -0.684924 40.25
99 2 -45.9615 55.8317 -65.5951
85 1 -76.5876 -1.62964 40.3772
29 2 -16.3407 90.6814 112.799
133 1 99.3645 -3.13223 -130.047
135 2 98.2724 -3.45569 -130.266
134 2 100.457 -2.80876 -129.827
89 2 20.8251 -40.3129 45.7507
88 1 20.7729 -41.241 46.4446
90 2 20.7208 -42.1691 47.1384
5 2 -81.2811 -39.1538 82.7575
4 1 -81.6562 -38.3415 82.0193
6 2 -82.0312 -37.5291 81.281
21 2 70.106 -39.2954 -49.6111
20 2 71.3854 -40.0957 -51.3732
125 2 55.1276 -17.6349 91.1359
19 1 70.7457 -39.6956 -50.4921
124 1 55.5317 -17.937 92.1804
18 2 -39.7706 34.1513 -39.3333
107 2 -83.6166 93.1095 141.705
106 1 -83.9693 92.7446 142.748
16 1 -39.6779 34.3996 -40.4626
123 2 126.502 -16.8291 -0.0967072
57 2 21.0474 142.266 103.25
55 1 22.0207 142.853 103.019
56 2 22.9941 143.44 102.787
2 2 -7.20746 33.1616 -2.62431
1 1 -6.60582 33.6042 -1.73675
17 2 -39.5851 34.6479 -41.592
140 2 -40.8081 -14.4968 66.0432
141 2 -41.9661 -14.8583 68.0207
139 1 -41.3871 -14.6775 67.032
3 2 -6.00418 34.0468 -0.849199
84 2 92.881 -0.14918 63.1948
108 2 -84.3221 92.3797 143.791
ITEM: TIMESTEP
40000
ITEM: NUMBER OF ATOMS
150
ITEM: BOX BOUNDS pp pp pp
0.0000000000000000e+00 3.6000000000000000e+01
0.0000000000000000e+00 3.6000000000000000e+01
0.0000000000000000e+00 3.6000000000000000e+01
ITEM: ATOMS id type xu yu zu
137 2 37.1572 40.1093 150.059
136 1 37.2117 39.1881 149.356
138 2 37.2661 38.267 148.653
65 2 42.7318 -55.6154 -66.6373
46 1 148.49 46.5561 -29.4081
40 1 1.38166 -23.6292 -102.032
42 2 2.03271 -23.8358 -102.969
66 2 44.4956 -55.8482 -68.1264
64 1 43.6137 -55.7318 -67.3818
41 2 0.730612 -23.4226 -101.094
99 2 -59.9307 86.9742 -71.0937
11 2 159.13 -103.474 -106.867
10 1 159.413 -103.8 -105.791
97 1 -60.9919 86.7118 -71.4818
12 2 159.695 -104.126 -104.714
48 2 148.27 45.7364 -30.1988
47 2 148.711 47.3757 -28.6175
98 2 -62.0531 86.4494 -71.8699
132 2 44.7293 120.891 -24.1109
70 1 3.14607 -25.0912 -25.4527
6 2 -58.2387 -55.8906 118.151
130 1 44.5155 121.764 -24.8441
131 2 44.3018 122.638 -25.5774
114 2 82.2177 53.7376 49.774
72 2 3.702 -24.0868 -25.6188
71 2 2.59014 -26.0957 -25.2865
4 1 -58.0429 -54.7508 118.061
23 2 -133.586 147.724 162.229
1 1 -20.8387 3.21948 -17.1712
22 1 -133.376 148.475 163.087
3 2 -20.1019 2.73948 -16.4148
2 2 -21.5755 3.69948 -17.9277
24 2 -133.166 149.227 163.945
80 2 50.3944 -32.7259 -82.099
79 1 51.4925 -32.5022 -81.7993
81 2 52.5905 -32.2786 -81.4996
14 2 15.6785 -92.3364 -81.0729
35 2 1.16588 144.441 -52.3668
34 1 1.76542 144.166 -53.3212
8 2 -61.2388 39.1299 100.074
13 1 15.526 -92.9074 -80.0747
15 2 15.3734 -93.4783 -79.0765
9 2 -59.6683 39.127 101.781
7 1 -60.4536 39.1285 100.928
95 2 36.8104 -112.621 8.70427
110 2 -35.0872 56.3519 113.461
109 1 -35.5683 56.4127 114.514
44 2 87.917 69.1624 5.78146
45 2 86.4579 70.9578 5.9544
43 1 87.1874 70.0601 5.86793
53 2 75.2123 -115.814 -22.356
54 2 73.6178 -115.646 -24.0328
52 1 74.415 -115.73 -23.1944
50 2 39.7409 57.7976 89.8494
5 2 -57.8471 -53.6109 117.972
112 1 83.2784 54.2023 49.7066
31 1 -31.6679 -152.671 53.7732
33 2 -30.9411 -151.82 53.4664
113 2 84.3391 54.667 49.6393
36 2 2.36495 143.892 -54.2756
94 1 36.3493 -111.633 9.10021
87 2 -96.3205 -4.58785 21.7669
85 1 -96.9455 -4.07659 22.5997
51 2 40.797 55.7646 90.2152
68 2 -92.0715 -6.60533 134.17
75 2 3.26005 -45.8284 58.9379
67 1 -91.0695 -6.06787 133.941
74 2 2.3381 -45.1242 60.9471
73 1 2.79908 -45.4763 59.9425
69 2 -90.0674 -5.53041 133.711
32 2 -32.3947 -153.521 54.0801
86 2 -97.5706 -3.56532 23.4324
49 1 40.269 56.7811 90.0323
91 1 87.2187 -73.7811 29.9925
133 1 124.38 58.8571 -109.988
90 2 7.80198 -75.5676 63.9197
146 2 76.7166 -8.45739 67.9054
134 2 125.328 59.1522 -110.588
147 2 77.0223 -8.9924 65.6688
145 1 76.8695 -8.7249 66.7871
93 2 87.9743 -73.1081 30.5598
92 2 86.4632 -74.454 29.4251
89 2 8.58425 -74.8229 65.973
88 1 8.19312 -75.1953 64.9463
135 2 123.433 58.562 -109.387
56 2 32.5812 150.431 113.36
26 2 66.8467 80.6947 -27.221
63 2 -76.9958 -90.4359 39.0677
55 1 32.6397 150.182 112.228
57 2 32.6982 149.933 111.097
82 1 90.4081 6.49769 50.247
84 2 90.5766 7.40288 49.5414
148 1 69.736 14.9969 14.093
150 2 69.2728 15.9472 14.5704
126 2 64.9169 -34.078 88.8843
77 2 -42.013 47.3535 -98.315
125 2 66.433 -32.7237 90.0022
124 1 65.675 -33.4009 89.4432
149 2 70.1991 14.0465 13.6155
18 2 -52.2283 13.4985 -62.2366
16 1 -52.141 12.9991 -61.1933
17 2 -52.0537 12.4997 -60.1499
78 2 -41.4522 46.8196 -96.128
76 1 -41.7326 47.0865 -97.2215
19 1 33.684 -60.1028 -128.341
21 2 32.7327 -60.6116 -128.767
27 2 65.6956 79.5351 -25.574
20 2 34.6352 -59.594 -127.915
25 1 66.2711 80.1149 -26.3975
83 2 90.2396 5.59249 50.9526
108 2 -122.954 83.5836 134.674
140 2 -89.7413 9.05943 96.6457
129 2 59.0141 122.635 21.9011
128 2 57.917 122.051 19.942
141 2 -89.2942 9.51667 94.4156
127 1 58.4656 122.343 20.9216
139 1 -89.5178 9.28805 95.5307
106 1 -122.122 82.9861 135.219
107 2 -121.291 82.3886 135.765
62 2 -77.7532 -88.9476 37.4572
61 1 -77.3745 -89.6918 38.2624
111 2 -36.0495 56.4735 115.568
117 2 62.0797 68.2468 110.511
115 1 61.3173 68.7899 109.826
116 2 60.5549 69.3331 109.141
123 2 141.429 -7.97517 -25.3942
122 2 141.025 -10.2075 -24.9089
121 1 141.227 -9.09135 -25.1516
96 2 35.8883 -110.645 9.49614
105 2 68.3161 131.733 -88.251
120 2 29.2067 99.5302 92.819
118 1 30.0368 100.288 93.1066
119 2 30.8669 101.045 93.3942
29 2 -8.44233 70.375 168.13
28 1 -8.63593 69.3574 167.608
30 2 -8.82953 68.3399 167.086
100 1 69.4346 34.4403 -86.1626
103 1 68.1676 132.867 -88.0528
101 2 68.5522 33.6927 -86.252
102 2 70.3171 35.1878 -86.0731
104 2 68.0191 134 -87.8545
37 1 70.4531 -40.6027 -43.5891
142 1 -39.6448 29.5395 -38.4321
38 2 69.9853 -41.5145 -43.0456
60 2 -40.7258 96.8726 69.5683
59 2 -41.4721 95.2102 71.0042
58 1 -41.0989 96.0414 70.2863
144 2 -39.7033 30.2424 -37.5111
143 2 -39.5863 28.8366 -39.353
39 2 70.9209 -39.6909 -44.1326
ITEM: TIMESTEP
50000
ITEM: NUMBER OF ATOMS
150
ITEM: BOX BOUNDS pp pp pp
0.0000000000000000e+00 3.6000000000000000e+01
0.0000000000000000e+00 3.6000000000000000e+01
0.0000000000000000e+00 3.6000000000000000e+01
ITEM: ATOMS id type xu yu zu
25 1 112.649 114.136 0.140661
86 2 -132.371 -25.4629 0.680165
26 2 112.307 113.797 1.19615
89 2 0.594186 -107.627 43.494
85 1 -131.814 -26.2118 -0.00891871
5 2 -18.546 -22.0581 123.498
101 2 108.102 44.8693 -55.901
84 2 109.201 39.3073 45.1512
8 2 -61.5808 36.825 89.9943
73 1 0.48029 -56.4736 60.1874
74 2 0.672015 -56.383 59.047
75 2 0.288566 -56.5642 61.3279
63 2 -71.8827 -107.318 59.1225
138 2 13.068 15.3608 127.471
21 2 6.21626 -28.0641 -125.414
19 1 6.32988 -26.9245 -125.599
20 2 6.4435 -25.785 -125.784
49 1 44.8766 72.5293 94.4403
50 2 45.6947 73.3442 94.3289
72 2 16.479 -29.7957 -86.421
137 2 15.0889 14.5816 126.64
136 1 14.0784 14.9712 127.056
70 1 17.1017 -29.3068 -87.2689
7 1 -61.6003 35.9586 90.7654
128 2 81.0006 123.387 35.4644
127 1 81.2002 122.323 35.0477
129 2 81.3998 121.259 34.631
27 2 112.991 114.474 -0.914824
33 2 -34.0379 -170.084 100.539
31 1 -34.8136 -170.444 101.322
53 2 89.493 -93.5299 -72.9931
87 2 -131.257 -26.9608 -0.698003
32 2 -35.5893 -170.805 102.105
52 1 89.8034 -94.3736 -72.26
13 1 7.8679 -86.4775 -70.1101
15 2 7.73674 -86.6033 -71.2558
14 2 7.99907 -86.3518 -68.9644
95 2 52.3954 -116.162 5.83905
96 2 51.9919 -113.888 6.0648
94 1 52.1936 -115.025 5.95193
90 2 -0.0940742 -109.714 42.7509
88 1 0.250056 -108.67 43.1225
93 2 88.2939 -81.1268 11.4653
114 2 81.3137 69.3777 49.0252
91 1 88.8265 -81.6932 12.3262
45 2 123.121 34.7714 50.121
113 2 82.2709 70.4483 47.2031
112 1 81.7923 69.913 48.1142
92 2 89.359 -82.2595 13.1872
43 1 123.135 33.6871 49.7091
44 2 123.149 32.6028 49.2972
64 1 43.96 -51.3827 -86.0558
66 2 43.3692 -50.6563 -85.3709
132 2 2.37847 127.732 22.4884
65 2 44.5507 -52.109 -86.7406
57 2 40.8155 134.278 96.245
130 1 1.32349 127.772 22.969
55 1 40.18 133.378 95.8835
24 2 -136.034 140.022 131.587
18 2 -57.9481 -6.18986 -85.0007
56 2 39.5445 132.477 95.5221
16 1 -57.7991 -7.07983 -84.2717
9 2 -61.6197 35.0923 91.5366
51 2 44.0585 71.7145 94.5516
17 2 -57.6502 -7.96981 -83.5428
23 2 -134.528 138.806 130.307
22 1 -135.281 139.414 130.947
131 2 0.268521 127.812 23.4497
145 1 72.5314 -6.31755 70.1644
147 2 72.7162 -5.59379 71.0519
146 2 72.3465 -7.0413 69.277
123 2 168.793 17.1143 -31.8117
142 1 -45.9877 9.33643 -65.0294
143 2 -45.4011 10.3369 -65.0551
144 2 -46.5742 8.33599 -65.0037
54 2 90.1138 -95.2173 -71.5269
83 2 106.934 38.8131 45.1038
97 1 -48.1165 80.0058 -55.6007
4 1 -17.5946 -21.8078 124.113
99 2 -47.481 79.7578 -54.6625
2 2 -7.83578 17.9607 -60.7878
108 2 -146.468 82.1545 124.765
102 2 107.854 44.9539 -58.2061
100 1 107.978 44.9116 -57.0536
106 1 -146.514 82.1588 125.924
6 2 -16.6432 -21.5574 124.728
98 2 -48.752 80.2538 -56.5389
1 1 -7.77102 16.8346 -61.0585
82 1 108.068 39.0602 45.1275
3 2 -7.70626 15.7085 -61.3293
107 2 -146.559 82.1631 127.083
111 2 -43.4691 40.6944 166.891
109 1 -42.5925 40.3376 166.22
110 2 -41.7158 39.9808 165.55
71 2 17.7243 -28.818 -88.1168
140 2 -113.816 5.07613 126.988
103 1 94.4591 118.245 -46.3972
80 2 33.214 5.05315 -87.279
79 1 32.7504 5.32604 -86.2513
81 2 32.2868 5.59893 -85.2235
105 2 94.7566 117.578 -45.4962
104 2 94.1616 118.912 -47.2983
141 2 -112.642 7.04949 127.317
139 1 -113.229 6.06281 127.152
62 2 -72.8449 -105.334 58.401
61 1 -72.3638 -106.326 58.7618
67 1 -120.796 -30.9866 105.385
68 2 -119.849 -30.5588 104.87
12 2 164.111 -107.597 -145.806
69 2 -121.744 -31.4143 105.899
10 1 165.195 -107.858 -145.486
29 2 -8.4689 59.7228 184.914
28 1 -9.18163 58.9362 184.446
30 2 -9.89436 58.1497 183.978
41 2 -12.7339 -44.0566 -105.026
40 1 -11.7101 -43.9757 -105.565
42 2 -10.6862 -43.8948 -106.104
58 1 -40.8442 101.749 74.3635
148 1 69.4895 56.8976 7.73993
150 2 69.9026 56.6999 8.80569
121 1 168.494 18.0954 -32.3535
35 2 -11.0176 133.483 -101.104
60 2 -40.9693 101.186 75.3701
122 2 168.195 19.0766 -32.8953
149 2 69.0764 57.0954 6.67417
59 2 -40.719 102.311 73.3569
34 1 -10.4185 133.31 -100.126
124 1 61.2431 -54.1943 89.1064
126 2 60.5817 -54.2943 90.0541
125 2 61.9045 -54.0943 88.1587
36 2 -9.81931 133.137 -99.1482
37 1 57.5031 -52.4292 -11.1717
38 2 56.5062 -52.7274 -11.6844
39 2 58.5001 -52.1311 -10.6591
78 2 -40.3739 57.1055 -84.7921
76 1 -40.6584 57.1318 -83.6678
77 2 -40.943 57.1581 -82.5436
47 2 133.803 25.4809 -45.9291
46 1 134.195 26.0991 -46.8288
48 2 134.588 26.7174 -47.7285
115 1 26.2968 94.0237 141.989
116 2 26.3066 94.2608 143.124
120 2 28.438 96.3653 102.082
118 1 29.1363 96.5187 101.168
11 2 166.279 -108.119 -145.166
119 2 29.8345 96.6721 100.255
135 2 139.85 97.5563 -73.4441
117 2 26.287 93.7866 140.853
134 2 139.164 97.4852 -75.6593
133 1 139.507 97.5208 -74.5517
ITEM: TIMESTEP
60000
ITEM: NUMBER OF ATOMS
150
ITEM: BOX BOUNDS pp pp pp
0.0000000000000000e+00 3.6000000000000000e+01
0.0000000000000000e+00 3.6000000000000000e+01
0.0000000000000000e+00 3.6000000000000000e+01
ITEM: ATOMS id type xu yu zu
99 2 -35.7066 72.1444 -33.3699
83 2 118.723 35.868 42.5234
17 2 -95.1843 1.61873 -136.039
16 1 -95.7014 1.60469 -135
65 2 44.1136 -28.5746 -93.567
66 2 43.4858 -26.3454 -93.4304
64 1 43.7997 -27.46 -93.4987
54 2 72.929 -94.7617 -60.2699
53 2 74.0917 -94.862 -58.2647
52 1 73.5103 -94.8119 -59.2673
112 1 89.7824 119.976 52.5942
81 2 48.1082 -19.0857 -90.2994
18 2 -96.2185 1.59065 -133.962
29 2 -19.6234 47.7843 191.373
114 2 88.7194 119.526 52.4811
28 1 -18.812 47.172 190.814
132 2 46.4593 144.67 20.3803
130 1 46.3277 145.538 21.1383
80 2 48.3631 -19.6916 -88.0745
57 2 78.9644 124.654 54.4975
79 1 48.2357 -19.3886 -89.1869
55 1 78.7485 123.594 54.9161
56 2 78.5325 122.534 55.3347
131 2 46.1962 146.406 21.8963
75 2 -18.9917 -65.7756 103.614
141 2 -103.078 54.6566 99.7164
73 1 -18.3302 -66.5034 102.999
68 2 -140.694 -35.4327 102.14
136 1 3.06427 -40.385 109.701
137 2 3.95426 -40.2167 110.426
138 2 2.17427 -40.5534 108.977
24 2 -127.104 140.501 112.356
22 1 -127.664 140.135 113.304
125 2 46.0754 -74.962 79.4855
23 2 -128.224 139.769 114.252
2 2 4.86676 20.6381 -63.2237
124 1 45.8417 -76.0881 79.3342
108 2 -132.502 69.1863 108.575
106 1 -133.071 68.4201 109.235