ITEM: TIMESTEP
0
ITEM: NUMBER OF ATOMS
150
ITEM: BOX BOUNDS pp pp pp
0.0000000000000000e+00 3.6000000000000000e+01
0.0000000000000000e+00 3.6000000000000000e+01
0.0000000000000000e+00 3.6000000000000000e+01
ITEM: ATOMS id type xu yu zu
48 2 -20.0115 -33.4313 6.90655
91 1 -25.0551 36.4096 6.25865
93 2 -26.0578 36.9585 6.4558
46 1 -18.8836 -33.2955 7.14106
137 2 145.298 13.7153 0.231253
136 1 145.916 13.9584 1.18238
138 2 146.534 14.2016 2.1335
87 2 79.425 8.39075 48.2553
70 1 10.8201 43.448 46.9321
71 2 10.7635 43.2584 48.0751
72 2 10.8767 43.6375 45.7891
86 2 80.0059 10.5431 48.8974
85 1 79.7155 9.46693 48.5764
56 2 -69.7575 16.5192 -19.1945
55 1 -70.3644 16.6192 -20.178
57 2 -70.9713 16.7191 -21.1615
42 2 1.12116 -23.7291 11.0944
40 1 0.139424 -24.3192 11.2775
52 1 2.29352 40.8468 55.4459
53 2 3.06926 40.1509 55.9554
54 2 1.51778 41.5427 54.9365
135 2 48.1229 0.699478 19.6988
133 1 47.8866 0.00524608 20.5976
60 2 -30.8743 16.2253 -17.2176
89 2 0.0252576 13.7195 24.76
88 1 1.03347 13.1458 24.7565
90 2 2.04168 12.5721 24.7531
59 2 -32.014 14.2216 -16.9555
58 1 -31.4442 15.2234 -17.0865
67 1 44.5741 80.302 31.3241
68 2 43.7937 80.1318 32.1653
43 1 8.41507 7.45316 34.8781
45 2 8.15675 8.42622 35.4543
50 2 74.0455 112.91 35.5353
49 1 73.8566 114.034 35.318
51 2 73.6677 115.158 35.1006
44 2 8.67339 6.48011 34.3019
69 2 45.3545 80.4722 30.483
33 2 38.4317 -22.0821 -43.3808
31 1 39.5162 -22.3565 -43.6878
32 2 40.6006 -22.6308 -43.9948
36 2 -28.931 89.4664 -40.215
23 2 -18.6955 -56.664 -74.1535
64 1 -20.4679 -96.9703 68.8182
65 2 -20.0899 -96.1753 68.0629
66 2 -20.846 -97.7654 69.5736
92 2 -24.0524 35.8606 6.0615
125 2 -34.9982 25.4082 89.3716
124 1 -35.5591 26.4217 89.4337
141 2 52.0819 -11.9504 86.5823
139 1 51.937 -12.2139 85.4619
140 2 51.7921 -12.4773 84.3416
75 2 12.8127 -11.1116 87.9074
73 1 13.2571 -11.7109 88.7956
123 2 -25.8919 26.9504 -24.171
74 2 13.7015 -12.3103 89.6838
122 2 -27.1005 27.4373 -22.2514
13 1 4.2477 67.9722 -18.4882
14 2 4.12288 67.2363 -19.3762
121 1 -26.4962 27.1939 -23.2112
7 1 41.3652 -16.3381 98.9111
8 2 40.7775 -15.3681 98.6676
63 2 -34.239 23.5195 -11.3623
62 2 -35.5151 21.5862 -11.2357
61 1 -34.877 22.5529 -11.299
77 2 36.133 -11.37 26.9617
149 2 11.5662 20.9105 -17.0515
148 1 10.9872 20.2401 -16.3025
142 1 51.4649 26.6131 21.4199
150 2 10.4082 19.5698 -15.5536
144 2 51.3004 25.6639 22.0661
127 1 -35.9028 -8.57167 -12.1138
128 2 -34.8994 -8.58914 -11.5321
15 2 4.37252 68.7081 -17.6003
143 2 51.6294 27.5623 20.7738
134 2 47.6504 -0.688985 21.4964
78 2 38.0412 -10.3682 27.8205
35 2 -28.7175 91.7589 -39.9298
76 1 37.0871 -10.8691 27.3911
34 1 -28.8242 90.6127 -40.0724
9 2 41.9528 -17.3081 99.1547
10 1 48.7632 19.7719 28.1518
11 2 48.9304 20.9179 28.0852
12 2 48.596 18.626 28.2184
25 1 15.0554 23.7817 29.8643
27 2 15.7679 24.3417 29.1402
26 2 14.343 23.2216 30.5884
115 1 5.40092 33.2293 -2.56431
117 2 5.81695 34.1991 -2.08262
116 2 4.9849 32.2595 -3.046
47 2 -17.7557 -33.1598 7.37557
3 2 -6.78452 36.5453 0.642768
111 2 -14.6861 17.285 3.70925
80 2 26.7762 -19.983 3.90227
109 1 -14.7658 16.155 3.95924
110 2 -14.8456 15.0251 4.20923
81 2 26.0797 -22.1822 3.65579
79 1 26.4279 -21.0826 3.77903
84 2 26.6297 -26.5915 0.61359
82 1 27.3418 -26.4739 1.52172
83 2 28.0539 -26.3563 2.42985
107 2 -13.4825 0.395778 45.0182
41 2 -0.842311 -24.9093 11.4607
114 2 28.5116 2.18218 25.7344
112 1 28.8826 2.20251 26.8333
94 1 70.7288 -18.049 -49.0623
95 2 69.8844 -18.8443 -49.0556
118 1 62.5332 41.1847 31.6339
120 2 62.0763 41.3806 30.5859
119 2 62.99 40.9887 32.682
113 2 29.2535 2.22283 27.9322
2 2 -6.5684 38.3715 -0.77157
1 1 -6.67646 37.4584 -0.0644011
22 1 -17.7935 -56.8187 -74.8663
24 2 -16.8915 -56.9735 -75.579
17 2 169.98 60.9913 -32.3541
16 1 169.938 60.1001 -33.0953
18 2 169.895 59.2089 -33.8366
102 2 92.5433 35.2126 -32.4427
101 2 92.7954 33.5202 -30.876
100 1 92.6693 34.3664 -31.6593
108 2 -14.5872 -1.47625 45.8293
106 1 -14.0348 -0.540235 45.4238
126 2 -36.1199 27.4352 89.4958
104 2 -10.3232 23.706 23.6618
103 1 -9.29668 23.9023 23.1586
130 1 67.1517 55.9981 57.7879
131 2 68.1067 56.1472 58.4292
132 2 66.1967 55.849 57.1465
105 2 -8.27015 24.0986 22.6553
96 2 71.5732 -17.2536 -49.069
28 1 92.0118 66.0212 24.9204
29 2 91.6791 66.5156 25.9157
30 2 92.3445 65.5269 23.9252
38 2 24.5867 71.5941 -10.164
37 1 24.5325 71.1735 -9.08434
129 2 -36.9062 -8.55419 -12.6956
146 2 22.2708 24.588 30.7924
147 2 23.0735 24.2603 28.6405
145 1 22.6721 24.4241 29.7165
5 2 23.7418 -2.60572 71.2863
39 2 24.4784 70.7529 -8.00464
20 2 -83.2338 28.8087 34.1984
21 2 -85.1166 27.9557 33.1449
19 1 -84.1752 28.3822 33.6717
6 2 22.6683 -4.66115 71.3573
4 1 23.205 -3.63344 71.3218
99 2 -44.3891 -79.3258 30.274
97 1 -43.4011 -78.7438 30.0985
98 2 -42.4132 -78.1618 29.9229
ITEM: TIMESTEP
10000
ITEM: NUMBER OF ATOMS
150
ITEM: BOX BOUNDS pp pp pp
0.0000000000000000e+00 3.6000000000000000e+01
0.0000000000000000e+00 3.6000000000000000e+01
0.0000000000000000e+00 3.6000000000000000e+01
ITEM: ATOMS id type xu yu zu
131 2 42.1631 40.4002 40.4249
130 1 41.755 40.9758 41.3457
132 2 41.3469 41.5513 42.2664
126 2 -57.1369 12.1841 75.8892
125 2 -57.0013 12.5702 78.1728
124 1 -57.0691 12.3772 77.031
135 2 42.7395 6.94334 14.5253
134 2 43.042 8.65338 12.9869
39 2 37.3549 53.2023 14.4281
133 1 42.8907 7.79836 13.7561
60 2 -58.6538 15.8943 -19.8091
58 1 -59.2982 15.918 -20.7733
59 2 -59.9427 15.9416 -21.7375
108 2 7.32383 -27.7316 53.4212
42 2 -18.3586 -69.4559 11.356
37 1 36.5527 53.9672 14.0861
109 1 6.3625 11.1892 -10.0906
106 1 7.09064 -27.6731 54.556
111 2 7.14349 10.3617 -10.3161
110 2 5.5815 12.0167 -9.86503
107 2 6.85744 -27.6145 55.6908
86 2 82.8837 6.59578 102.819
20 2 -60.7226 16.4673 34.872
19 1 -61.4576 16.1571 34.0298
21 2 -62.1925 15.8469 33.1877
8 2 47.983 -21.4453 100.801
45 2 13.8445 16.164 30.0552
36 2 -31.6766 111.868 -6.94117
43 1 14.8485 16.1399 29.4746
85 1 81.8446 6.48284 102.316
44 2 15.8525 16.1158 28.894
34 1 -30.9238 111.795 -6.06164
7 1 47.034 -21.4949 100.136
35 2 -30.171 111.722 -5.18212
87 2 80.8055 6.36991 101.813
138 2 144.429 3.97835 -36.3113
47 2 -33.544 -26.7247 -0.543465
46 1 -33.4829 -27.8775 -0.429647
48 2 -33.4218 -29.0303 -0.315828
9 2 46.0851 -21.5445 99.4706
4 1 45.6332 -13.561 79.8361
6 2 46.0001 -13.9484 80.8661
5 2 45.2663 -13.1737 78.806
129 2 -59.5904 -9.01421 1.86808
128 2 -57.9678 -9.71572 3.37058
127 1 -58.7791 -9.36497 2.61933
104 2 -24.2728 19.1897 8.0796
103 1 -25.1791 19.0578 7.36776
105 2 -26.0855 18.9258 6.65592
147 2 39.8942 34.8194 44.2033
148 1 14.6056 31.8584 -23.9681
65 2 -22.6189 -78.3541 87.6762
145 1 39.0999 34.9434 45.0396
146 2 38.3056 35.0673 45.8758
64 1 -22.3492 -77.2967 87.2828
150 2 13.5155 31.9653 -24.35
149 2 15.6957 31.7514 -23.5863
66 2 -22.0794 -76.2393 86.8894
139 1 85.314 -15.6266 99.4024
141 2 84.8325 -16.6305 99.7278
140 2 85.7954 -14.6227 99.0769
120 2 50.1185 33.0327 35.1221
123 2 -19.6728 26.7333 -39.3373
121 1 -19.4091 27.8305 -39.6061
71 2 17.4376 67.2551 64.7241
122 2 -19.1453 28.9276 -39.8749
119 2 49.1581 34.7109 33.8401
32 2 51.5164 -7.93566 -42.7348
118 1 49.6383 33.8718 34.4811
31 1 51.945 -7.95688 -43.8125
33 2 52.3735 -7.97809 -44.8902
98 2 -47.206 -68.6853 42.4337
97 1 -47.5684 -69.6351 42.9924
99 2 -47.9308 -70.5849 43.5512
143 2 61.4904 15.8646 8.71175
136 1 143.514 3.91982 -35.5998
137 2 142.6 3.86128 -34.8883
40 1 -17.7239 -70.4268 11.3523
142 1 62.279 15.993 9.55271
49 1 65.2937 111.88 48.7565
50 2 64.5868 111.822 47.8386
51 2 66.0006 111.938 49.6744
112 1 30.6668 7.68635 10.4079
114 2 31.5821 8.00249 9.76912
55 1 -87.4846 15.7472 -24.276
56 2 -88.2111 14.9065 -24.6093
57 2 -86.7582 16.5879 -23.9428
113 2 29.7516 7.37022 11.0466
41 2 -17.0892 -71.3978 11.3486
144 2 63.0676 16.1214 10.3937
53 2 -0.852304 53.8446 23.5057
77 2 62.7294 17.2244 24.0036
76 1 62.1451 17.2753 23.0028
67 1 63.5825 84.1113 23.4268
69 2 63.4838 84.28 22.2833
68 2 63.6813 83.9427 24.5702
54 2 -2.64648 52.4171 23.1514
78 2 61.5608 17.3261 22.002
52 1 -1.74939 53.1308 23.3285
62 2 -44.7377 36.1828 -14.3679
101 2 92.1779 1.49429 -7.48799
100 1 92.3775 0.376663 -7.7261
1 1 -13.5144 50.2117 -2.35189
3 2 -12.8682 50.9798 -1.7705
2 2 -14.1606 49.4436 -2.93328
24 2 -3.91502 -60.185 -109.4
22 1 -3.23205 -61.098 -109.186
23 2 -2.54908 -62.011 -108.973
81 2 23.2249 -3.72251 0.674471
80 2 23.6267 -5.08778 2.50668
79 1 23.4258 -4.40514 1.59058
93 2 -45.8574 22.7007 36.536
91 1 -46.3827 23.6824 36.2106
10 1 57.2724 26.5754 14.1819
12 2 57.5184 25.4594 13.9825
11 2 57.0264 27.6913 14.3812
25 1 22.9064 19.5228 11.1648
26 2 23.8073 19.2966 11.8597
74 2 25.0945 -13.6975 84.073
73 1 25.7766 -13.0549 84.7568
16 1 178.7 107.501 -25.514
83 2 27.2439 -46.2135 16.5471
75 2 26.4586 -12.4123 85.4405
18 2 179.049 108.082 -24.5727
17 2 178.351 106.92 -26.4554
82 1 27.6048 -45.2604 15.9931
27 2 22.0056 19.749 10.4699
84 2 27.9656 -44.3072 15.4391
38 2 35.7505 54.7321 13.7441
89 2 -15.5716 -6.49876 17.4734
95 2 60.3491 -9.06459 -50.7109
94 1 60.0179 -8.97028 -49.6032
13 1 -11.1118 69.0936 -16.4254
117 2 -16.4626 28.1643 -12.694
115 1 -16.2072 29.2847 -12.5351
116 2 -15.9518 30.405 -12.3762
96 2 59.6868 -8.87597 -48.4955
90 2 -15.4598 -7.66316 19.4769
88 1 -15.5157 -7.08096 18.4752
63 2 -43.3167 35.4571 -16.0521
61 1 -44.0272 35.82 -15.21
30 2 98.243 69.246 22.1991
28 1 97.6072 69.825 22.9778
29 2 96.9715 70.4039 23.7564
14 2 -11.179 70.2509 -16.3837
15 2 -11.0445 67.9363 -16.4671
102 2 92.577 -0.740959 -7.9642
92 2 -46.9079 24.6641 35.8851
70 1 18.4889 67.4681 65.1659
72 2 19.5401 67.6812 65.6076
ITEM: TIMESTEP
20000
ITEM: NUMBER OF ATOMS
150
ITEM: BOX BOUNDS pp pp pp
0.0000000000000000e+00 3.6000000000000000e+01
0.0000000000000000e+00 3.6000000000000000e+01
0.0000000000000000e+00 3.6000000000000000e+01
ITEM: ATOMS id type xu yu zu
141 2 74.0893 -32.3666 80.7397
126 2 -25.9996 16.7517 74.761
124 1 -26.1341 17.8566 75.0878
140 2 75.7741 -31.0639 81.66
139 1 74.9317 -31.7152 81.1999
75 2 41.2388 -19.706 84.8408
73 1 41.2299 -20.2433 85.8688
85 1 75.7774 0.863662 119.856
86 2 76.2317 1.82125 119.385
135 2 51.7131 40.8757 53.9404
60 2 -64.4457 -20.3396 -18.6547
58 1 -63.6347 -20.6878 -19.4074
133 1 51.5075 41.6274 53.0811
59 2 -62.8236 -21.0359 -20.1601
134 2 51.302 42.3791 52.2219
74 2 41.2209 -20.7807 86.8968
20 2 -35.0634 17.6936 9.19387
128 2 -90.5906 0.964478 -23.762
99 2 -67.8318 -68.6234 61.8718
117 2 -35.7042 36.6429 -8.92803
97 1 -68.36 -69.2598 62.6852
14 2 -25.7397 88.4193 -6.80604
123 2 -18.3541 44.2786 -3.23955
121 1 -18.3504 44.8776 -4.23292
98 2 -68.8882 -69.8962 63.4986
13 1 -25.5387 89.5431 -7.01141
115 1 -36.1022 36.4747 -7.8515
105 2 -26.4143 36.9508 28.8607
122 2 -18.3467 45.4766 -5.22629
118 1 43.6453 -7.33656 39.7721
120 2 43.0148 -6.40462 39.4901
84 2 17.0242 -53.0611 1.02086
82 1 16.616 -52.2259 1.71465
83 2 16.2079 -51.3906 2.40844
56 2 -59.5983 31.1552 -28.768
119 2 44.2758 -8.2685 40.0542
55 1 -59.5418 30.9342 -27.6306
125 2 -26.2686 18.9614 75.4147
77 2 88.8492 27.9217 -23.421
78 2 88.0184 29.3305 -25.0665
8 2 42.3859 -36.8725 121.292
87 2 75.3231 -0.0939216 120.328
76 1 88.4338 28.6261 -24.2438
7 1 43.2323 -37.5041 120.812
9 2 44.0787 -38.1356 120.332
57 2 -59.4854 30.7132 -26.4933
19 1 -35.6109 18.6771 9.47404
28 1 86.1742 99.5204 25.8854
30 2 86.6797 98.6351 26.4388
29 2 85.6686 100.406 25.332
34 1 -19.745 102.542 25.8899
35 2 -20.0018 103.528 25.3349
36 2 -19.4882 101.556 26.445
63 2 -71.9946 30.9873 -16.0463
2 2 6.03907 67.2192 -6.78259
3 2 4.37927 65.737 -7.4386
1 1 5.20917 66.4781 -7.1106
104 2 -26.197 34.9153 29.9523
106 1 2.5047 -42.7543 68.9117
107 2 3.6454 -42.545 68.8865
108 2 1.36401 -42.9635 68.9369
94 1 53.4565 -8.05015 -39.7265
33 2 48.6529 -7.34879 -40.4528
146 2 17.9371 31.806 33.9509
32 2 50.5605 -6.24081 -39.7346
31 1 49.6067 -6.7948 -40.0937
145 1 17.5846 31.8228 32.8459
147 2 17.232 31.8395 31.7409
103 1 -26.3057 35.933 29.4065
96 2 52.8577 -8.94596 -40.1561
15 2 -25.3378 90.6669 -7.21678
114 2 22.6387 10.1547 1.28089
130 1 54.2462 46.8968 42.1189
131 2 54.2197 46.9215 40.9595
144 2 61.662 17.3931 6.19748
112 1 22.9014 9.60482 0.293849
132 2 54.2727 46.8721 43.2783
81 2 24.8569 3.5676 9.68275
79 1 25.2387 3.74905 10.763
127 1 -90.0248 0.978561 -22.7494
129 2 -89.459 0.992643 -21.7369
80 2 25.6204 3.9305 11.8433
48 2 -47.1366 -34.6598 -18.3267
46 1 -47.0193 -33.5265 -18.5448
47 2 -46.902 -32.3932 -18.7629
93 2 -45.3086 3.29178 57.2267
102 2 93.8359 0.953232 19.5653
101 2 91.9662 0.0392234 18.54
91 1 -45.3047 4.03157 58.1202
92 2 -45.3008 4.77137 59.0136
149 2 -5.91695 37.766 -17.2341
148 1 -6.07378 38.8835 -16.9654
100 1 92.9011 0.496228 19.0526
150 2 -6.23061 40.001 -16.6967
11 2 60.9066 5.45893 -10.7999
10 1 60.4119 5.82346 -9.81603
113 2 23.164 9.05495 -0.693197
43 1 33.0028 14.955 29.2399
12 2 59.9173 6.18799 -8.83215
16 1 209.809 108.279 -40.0964
44 2 32.7912 15.7658 30.0421
52 1 -2.70873 80.8906 30.2049
54 2 -2.77374 81.5699 29.2669
18 2 209.094 109.18 -39.9491
53 2 -2.64373 80.2113 31.1429
45 2 33.2143 14.1443 28.4377
116 2 -36.5002 36.3065 -6.77496
65 2 -8.59448 -80.7501 80.9511
142 1 62.5429 18.1367 6.32641
67 1 58.0718 101.685 7.83065
69 2 58.8249 100.803 7.83201
24 2 -12.7499 -37.7084 -139.459
23 2 -14.944 -37.7957 -140.208
4 1 57.0204 -9.34691 75.0078
22 1 -13.847 -37.7521 -139.833
6 2 56.7677 -8.83163 76.0159
5 2 57.2731 -9.86219 73.9997
143 2 63.4238 18.8804 6.45534
68 2 57.3187 102.568 7.8293
138 2 143.71 -2.50749 -55.46
88 1 -14.5324 -11.2853 10.8054
90 2 -14.5615 -12.1047 9.98484
89 2 -14.5034 -10.4659 11.626
39 2 23.0211 22.9734 12.4752
37 1 23.7663 22.422 11.7778
38 2 24.5115 21.8706 11.0805
51 2 63.7661 108.061 52.1102
109 1 28.8934 -12.3081 9.53982
110 2 29.9458 -12.7212 9.28029
111 2 27.841 -11.895 9.79935
50 2 63.3516 105.845 51.5617
49 1 63.5588 106.953 51.836
64 1 -9.61383 -81.3014 81.0017
137 2 141.492 -1.84605 -55.303
41 2 -36.7248 -77.8718 11.6468
136 1 142.601 -2.17677 -55.3815
40 1 -36.688 -76.9001 11.0143
66 2 -10.6332 -81.8528 81.0522
42 2 -36.6512 -75.9284 10.3817
21 2 -36.1584 19.6606 9.75421
71 2 21.8453 62.7974 61.472
70 1 21.3186 61.8248 61.1224
62 2 -73.8137 29.9323 -17.0262
72 2 20.792 60.8521 60.7728
61 1 -72.9042 30.4598 -16.5363
27 2 35.4481 27.5825 -9.44825
95 2 54.0552 -7.15434 -39.2969
17 2 210.524 107.377 -40.2438
26 2 35.8612 28.4295 -7.32825
25 1 35.6547 28.006 -8.38825
ITEM: TIMESTEP
30000
ITEM: NUMBER OF ATOMS
150
ITEM: BOX BOUNDS pp pp pp
0.0000000000000000e+00 3.6000000000000000e+01
0.0000000000000000e+00 3.6000000000000000e+01
0.0000000000000000e+00 3.6000000000000000e+01
ITEM: ATOMS id type xu yu zu
29 2 84.6738 112.905 80.922
30 2 85.8976 114.821 81.3857
28 1 85.2857 113.863 81.1538
5 2 72.942 -25.8572 76.9969
99 2 -91.5099 -55.0566 80.6065
98 2 -89.8359 -55.2496 79.0119
97 1 -90.6729 -55.1531 79.8092
105 2 3.94908 40.7782 53.4639
39 2 12.862 3.55288 12.5453
38 2 13.1496 1.29612 12.0907
37 1 13.0058 2.4245 12.318
120 2 9.03024 -36.2112 17.7149
26 2 38.7731 38.0566 -16.7004
25 1 38.6873 38.0807 -15.5438
27 2 38.6015 38.1049 -14.3873
104 2 2.53205 41.8403 54.9627
118 1 10.0484 -35.7365 18.0041
119 2 11.0666 -35.2619 18.2933
103 1 3.24057 41.3093 54.2133
127 1 -106.301 -23.4405 -37.3493
128 2 -106.195 -22.8151 -38.3205
148 1 10.259 15.0342 -36.621
149 2 11.3548 14.6581 -36.6788
129 2 -106.407 -24.066 -36.3781
150 2 9.16321 15.4103 -36.5632
107 2 3.93909 -47.1815 74.6908
108 2 2.87696 -45.4961 73.5019
106 1 3.40802 -46.3388 74.0963
147 2 42.7314 25.1386 39.7188
145 1 42.4188 24.3352 40.495
146 2 42.1062 23.5318 41.2712
35 2 -23.0914 94.7943 36.4359
139 1 85.6597 -44.1997 83.196
141 2 86.0838 -44.1498 82.1175
140 2 85.2355 -44.2496 84.2745
117 2 -58.7114 60.8681 9.47217
115 1 -59.6241 61.4655 9.86651
116 2 -60.5368 62.063 10.2609
2 2 14.938 107.674 -10.5701
81 2 13.1022 33.1261 26.5118
79 1 14.1914 32.727 26.5198
1 1 15.9555 107.852 -11.098
3 2 16.973 108.029 -11.626
80 2 15.2805 32.3279 26.5278
34 1 -23.3129 95.7867 35.8777
36 2 -23.5343 96.7792 35.3195
82 1 11.2656 -44.3848 -3.79243
84 2 11.1087 -45.077 -2.87486
123 2 6.54847 33.9357 -7.82198
62 2 -106.359 33.4488 -3.40395
61 1 -107.14 33.0338 -2.65336
121 1 6.97632 32.8752 -8.01688
63 2 -107.921 32.6187 -1.90277
122 2 7.40416 31.8148 -8.21178
83 2 11.4226 -43.6927 -4.71
45 2 43.7467 -4.0919 34.2372
44 2 42.1833 -5.05535 35.655
43 1 42.965 -4.57363 34.9461
111 2 37.1192 -16.2185 -0.797741
109 1 36.2574 -16.994 -0.759792
132 2 56.5891 85.6334 72.4088
89 2 -4.65219 -18.3049 5.26806
32 2 27.2094 2.01192 -35.3892
31 1 26.9179 0.909166 -35.6004
88 1 -3.69664 -18.7954 4.82997
18 2 242.206 74.2971 -63.7281
16 1 241.529 75.0732 -63.1944
137 2 141.44 7.14054 -66.6187
48 2 -46.8772 -25.1597 -28.8322
33 2 26.6265 -0.193583 -35.8116
138 2 141.846 4.8714 -66.8803
136 1 141.643 6.00597 -66.7495
22 1 -17.3039 -23.4878 -135.412
4 1 72.1117 -26.3976 76.3934
23 2 -17.6132 -23.8212 -136.479
90 2 -2.74108 -19.2859 4.39189
46 1 -46.1387 -26.0431 -28.6913
47 2 -45.4002 -26.9264 -28.5504
6 2 71.2814 -26.938 75.79
86 2 67.4041 3.72053 120.741
85 1 67.8918 4.67212 121.19
87 2 68.3794 5.6237 121.64
24 2 -16.9946 -23.1544 -134.345
17 2 240.851 75.8493 -62.6608
42 2 -44.0606 -103.669 17.632
92 2 -4.66866 0.666797 61.562
91 1 -5.66981 0.973234 61.0626
76 1 68.8071 7.00377 -13.8061
100 1 104.329 2.45376 23.4354
102 2 104.947 2.75726 24.3691
101 2 103.711 2.15027 22.5018
40 1 -43.6029 -103.692 18.6976
41 2 -43.1451 -103.715 19.7632
14 2 -41.4417 117.371 -10.7295
20 2 -40.7466 9.55361 -14.831
15 2 -39.8054 118.982 -10.3975
78 2 69.2848 7.09602 -12.753
13 1 -40.6236 118.177 -10.5635
77 2 68.3295 6.91152 -14.8592
19 1 -41.3774 10.4154 -15.2838
21 2 -42.0082 11.2772 -15.7366
93 2 -6.67095 1.27967 60.5632
69 2 57.142 112.965 -1.91511
130 1 55.5651 85.1703 72.1216
131 2 54.541 84.7072 71.8345
67 1 56.3712 112.832 -1.05849
68 2 55.6005 112.698 -0.201865
59 2 -40.2645 -24.5317 -4.74945
58 1 -40.1063 -24.0619 -3.70071
60 2 -39.9481 -23.5921 -2.65197
55 1 -38.3375 57.4672 -31.2087
56 2 -39.4329 57.4026 -30.8324
57 2 -37.2422 57.5318 -31.585
134 2 67.3967 66.0917 44.8295
54 2 -6.95995 93.3524 36.2382
52 1 -6.89628 92.3075 36.738
53 2 -6.83261 91.2626 37.2378
12 2 23.1006 22.997 0.202375
50 2 61.0206 101.87 47.3687
49 1 60.9997 102.766 48.1053
113 2 25.3641 -2.11722 16.2901
51 2 60.9789 103.662 48.842
7 1 22.6028 -38.9541 125.038
8 2 22.3695 -37.8284 125.192
9 2 22.8361 -40.0798 124.883
114 2 27.6353 -2.53643 16.5093
135 2 66.8251 67.3364 46.702
133 1 67.1109 66.714 45.7657
112 1 26.4997 -2.32682 16.3997
65 2 -9.20384 -83.6222 57.1116
66 2 -9.47359 -81.4418 57.857
64 1 -9.33871 -82.532 57.4843
144 2 64.6878 -3.68438 -15.805
142 1 65.4014 -4.59671 -15.8688
75 2 25.9832 -44.1687 62.7611
143 2 66.115 -5.50903 -15.9327
73 1 26.4759 -44.9315 62.0394
74 2 26.9687 -45.6944 61.3176
10 1 23.5673 21.9763 -0.0906778
125 2 -4.32539 19.6523 70.7431
11 2 24.034 20.9556 -0.383731
71 2 29.414 55.1303 27.0893
70 1 29.8091 54.5503 28.013
72 2 30.2043 53.9704 28.9366
126 2 -2.68536 20.9237 69.7057
94 1 30.2001 -3.21697 -38.0449
96 2 30.1158 -4.3683 -38.1587
124 1 -3.50537 20.288 70.2244
95 2 30.2843 -2.06564 -37.931
110 2 35.3955 -17.7694 -0.721843
ITEM: TIMESTEP
40000
ITEM: NUMBER OF ATOMS
150
ITEM: BOX BOUNDS pp pp pp
0.0000000000000000e+00 3.6000000000000000e+01
0.0000000000000000e+00 3.6000000000000000e+01
0.0000000000000000e+00 3.6000000000000000e+01
ITEM: ATOMS id type xu yu zu
47 2 -23.9233 -28.5257 -33.4882
46 1 -22.9065 -27.9681 -33.5184
83 2 1.94641 -34.0982 2.81216
48 2 -21.8898 -27.4106 -33.5486
82 1 1.44616 -34.3985 3.81474
84 2 0.945917 -34.6988 4.81733
50 2 53.6174 76.4004 71.9663
125 2 7.46787 36.2267 75.7384
26 2 40.4656 46.457 -25.3862
25 1 41.2866 45.906 -24.7797
27 2 42.1077 45.3551 -24.1732
74 2 37.7559 -58.3192 53.5134
121 1 0.890559 37.5117 -11.0478
123 2 0.0690031 37.9026 -11.7674
122 2 1.71211 37.1208 -10.3282
139 1 112.143 -21.1976 94.0892
73 1 36.7688 -58.2611 54.12
140 2 111.47 -22.0983 93.8044
141 2 112.816 -20.2968 94.374
49 1 53.0205 77.0842 71.2441
144 2 73.0739 -30.4648 -37.9039
142 1 72.1874 -30.2406 -38.6176
21 2 -71.7008 -20.4997 -41.9939
51 2 52.4235 77.768 70.5218
20 2 -71.8327 -19.2037 -43.9136
19 1 -71.7667 -19.8517 -42.9537
53 2 10.8084 100.797 40.216
146 2 46.9997 31.7577 36.9982
145 1 46.1917 31.4348 36.2311
126 2 7.72627 33.9593 75.321
124 1 7.59707 35.093 75.5297
34 1 3.22775 69.1226 39.4425
36 2 3.34455 69.6356 40.4764
35 2 3.11095 68.6097 38.4087
52 1 10.1463 100.957 39.277
54 2 9.48423 101.117 38.338
150 2 6.25294 -5.88827 -71.9544
42 2 -23.7139 -116.098 11.8881
110 2 44.6393 -9.04476 -21.2341
41 2 -23.2335 -118.365 11.7931
40 1 -23.4737 -117.232 11.8406
109 1 44.6616 -9.13428 -22.3905
111 2 44.6839 -9.2238 -23.5468
138 2 158.462 18.9521 -54.1895
65 2 -24.1318 -77.8389 53.2054
43 1 50.9595 -13.0597 21.2201
45 2 50.4896 -12.9361 20.1667
44 2 51.4294 -13.1833 22.2734
100 1 120.807 20.3843 22.2538
137 2 158.336 18.1617 -52.0118
136 1 158.399 18.5569 -53.1006
4 1 75.175 -37.6502 61.8499
102 2 120.574 19.9976 23.3225
9 2 12.9373 -44.9938 132.447
7 1 12.5603 -46.0877 132.364
104 2 10.6253 33.8681 57.828
105 2 8.97872 34.8627 56.5311
103 1 9.80202 34.3654 57.1795
64 1 -23.8577 -78.131 54.294
132 2 16.6481 107.501 93.0401
66 2 -23.5837 -78.4231 55.3827
8 2 12.1834 -47.1817 132.282
101 2 121.039 20.7711 21.1851
68 2 43.0855 130.017 -46.7233
78 2 72.432 34.8163 -12.0443
5 2 74.3079 -37.6219 62.6199
6 2 76.0422 -37.6786 61.0799
67 1 42.9777 129.244 -45.8648
12 2 15.0684 28.1851 -8.40612
147 2 45.3837 31.1118 35.464
10 1 16.1858 28.4964 -8.41296
149 2 5.99243 -4.03264 -73.3223
148 1 6.12268 -4.96045 -72.6383
69 2 42.87 128.471 -45.0063
11 2 17.3033 28.8077 -8.41981
13 1 -45.6462 117.883 7.05657
15 2 -46.1819 117.032 7.63545
14 2 -45.1104 118.733 6.47768
89 2 -17.7341 7.21054 4.87718
90 2 -15.9006 6.28645 3.79699
59 2 -8.02854 -32.0643 0.312682
58 1 -7.04925 -32.557 -0.066607
88 1 -16.8174 6.7485 4.33709
98 2 -74.5827 -59.9279 89.0815
97 1 -75.5391 -60.1876 89.6844
80 2 20.8038 80.3344 15.6042
81 2 20.2869 80.1166 17.8553
79 1 20.5454 80.2255 16.7297
22 1 -7.47895 -26.7019 -118.964
75 2 35.7818 -58.2031 54.7267
23 2 -8.46437 -26.7542 -119.574
24 2 -6.49353 -26.6495 -118.354
17 2 242.047 49.3844 -51.2571
18 2 243.397 51.2596 -51.0472
16 1 242.722 50.322 -51.1522
38 2 -16.7067 17.5819 23.6512
99 2 -76.4955 -60.4474 90.2872
56 2 -15.9342 84.2652 -39.0352
134 2 68.3175 72.0855 34.2819
55 1 -14.8326 84.625 -39.0859
57 2 -13.731 84.9849 -39.1366
60 2 -6.06997 -33.0497 -0.445896
143 2 71.3008 -30.0164 -39.3313
115 1 -82.0924 64.2132 1.56035
116 2 -82.4705 63.8609 0.52184
117 2 -81.7143 64.5655 2.59885
119 2 -51.0809 -48.7236 6.899
107 2 -5.53973 -52.0478 75.4912
108 2 -5.96751 -49.9495 74.5987
106 1 -5.75362 -50.9986 75.0449
118 1 -50.2809 -47.9174 6.66307
120 2 -49.4809 -47.1112 6.42714
113 2 30.9289 -9.52652 38.5002
29 2 94.1458 103.149 116.728
28 1 94.8485 103.374 115.833
2 2 28.364 140.322 1.81766
30 2 95.5512 103.598 114.938
1 1 27.2875 139.938 1.61842
112 1 30.2059 -9.43079 37.5982
3 2 26.2111 139.555 1.41918
114 2 29.4828 -9.33506 36.6962
92 2 -13.1878 -17.0217 80.3175
71 2 24.0077 55.6602 13.7815
72 2 22.5745 54.5251 15.2097
70 1 23.2911 55.0927 14.4956
93 2 -12.0587 -17.431 82.3024
91 1 -12.6232 -17.2263 81.31
37 1 -15.8917 18.4068 23.6226
77 2 70.7343 35.2337 -13.5694
63 2 -117.461 27.6003 26.299
61 1 -117.674 28.0366 25.2455
62 2 -117.887 28.4728 24.1919
39 2 -15.0766 19.2317 23.594
130 1 17.8072 107.49 93.0857
76 1 71.5831 35.025 -12.8069
131 2 18.9662 107.479 93.1313
129 2 -117.935 -46.4639 -40.1533
85 1 57.9201 -12.2716 140.316
87 2 57.6481 -13.3184 140.735
128 2 -119.292 -45.5748 -38.4947
94 1 29.2278 -8.42023 -42.8115
33 2 30.8544 -11.2644 -42.7962
32 2 30.628 -13.5286 -42.3442
31 1 30.7412 -12.3965 -42.5702
86 2 58.1921 -11.2247 139.897
96 2 28.4195 -8.78157 -42.062
127 1 -118.614 -46.0193 -39.324
95 2 30.0361 -8.05889 -43.5609
135 2 66.4221 70.8094 33.8803
133 1 67.3698 71.4475 34.0811
ITEM: TIMESTEP
50000
ITEM: NUMBER OF ATOMS
150
ITEM: BOX BOUNDS pp pp pp
0.0000000000000000e+00 3.6000000000000000e+01
0.0000000000000000e+00 3.6000000000000000e+01
0.0000000000000000e+00 3.6000000000000000e+01
ITEM: ATOMS id type xu yu zu
69 2 35.9735 147.13 -66.4869
67 1 36.3259 148.226 -66.343
68 2 36.6783 149.322 -66.1991
72 2 39.6139 51.1454 7.0288
88 1 -35.4762 -20.3323 39.4018
70 1 39.3043 51.4069 8.11571
89 2 -34.4415 -20.5157 39.8931
124 1 1.06489 39.4584 86.6217
125 2 0.72334 38.3575 86.4914
126 2 1.40644 40.5593 86.752
38 2 -33.4233 10.3587 14.2382
18 2 253.529 45.9468 -61.4082
16 1 253.454 44.7893 -61.4204
39 2 -31.8931 11.5545 15.5074
37 1 -32.6582 10.9566 14.8728
17 2 253.379 43.6318 -61.4326
71 2 38.9947 51.6684 9.20263
98 2 -71.6691 -67.0999 97.215
97 1 -70.9638 -66.6155 96.4316
99 2 -70.2586 -66.1311 95.6483
122 2 7.9204 45.4889 -14.8085
121 1 8.69508 46.3413 -14.9458
123 2 9.46975 47.1937 -15.0832
106 1 2.03739 -25.6598 58.8495
108 2 1.3179 -26.5521 58.6712
107 2 2.75689 -24.7676 59.0277
78 2 43.1098 46.5331 -11.686
76 1 42.4679 47.0469 -10.8677
77 2 41.8261 47.5607 -10.0495
110 2 13.725 -20.9668 -48.5719
95 2 16.4921 -20.3053 -52.0941
94 1 17.0591 -20.932 -51.2995
111 2 12.7763 -21.7234 -46.5945
109 1 13.2506 -21.3451 -47.5832
96 2 17.626 -21.5586 -50.5049
105 2 -19.8682 73.1326 67.5448
103 1 -19.5904 73.4154 68.635
104 2 -19.3125 73.6981 69.7251
119 2 -59.4384 -55.4665 -6.56713
118 1 -60.2387 -54.6937 -6.89563
5 2 49.946 0.495099 69.9158
74 2 42.0077 -46.3625 77.0986
112 1 37.0381 -10.5788 37.458
73 1 42.9196 -47.0172 77.3908
92 2 -24.2429 -11.6353 80.09
44 2 52.5661 -8.72577 2.37986
75 2 43.8315 -47.6719 77.683
93 2 -25.0439 -13.4801 78.9335
91 1 -24.6434 -12.5577 79.5117
140 2 108.271 -7.27863 79.9206
114 2 37.9994 -9.93007 37.4356
43 1 52.3922 -7.90945 3.18545
45 2 52.2182 -7.09314 3.99104
113 2 36.0767 -11.2276 37.4804
27 2 43.4564 60.0382 -26.0706
25 1 42.6018 60.8192 -26.1436
100 1 124.101 22.0934 53.7921
102 2 122.996 21.7421 53.7434
26 2 41.7473 61.6003 -26.2166
101 2 125.205 22.4447 53.8409
10 1 12.5919 20.4647 -10.5938
148 1 17.9407 -13.8874 -82.0887
12 2 12.9389 20.6472 -11.6856
66 2 -33.9556 -88.4832 22.874
64 1 -33.2348 -87.7365 23.3921
65 2 -32.5141 -86.9898 23.9103
149 2 16.7958 -13.9001 -81.9024
11 2 12.2449 20.2822 -9.50209
61 1 -92.6886 21.0074 33.3521
6 2 50.4394 -0.559796 71.9223
7 1 6.76748 -48.28 137.116
8 2 7.10282 -47.2129 136.809
9 2 6.43215 -49.3472 137.424
63 2 -92.5916 22.1353 33.0992
79 1 44.8687 94.588 -2.61066
81 2 44.2408 94.6754 -1.63925
80 2 45.4967 94.5006 -3.58207
30 2 86.9681 97.1389 104.641
4 1 50.1927 -0.0323482 70.9191
62 2 -92.7855 19.8795 33.605
120 2 -61.039 -53.921 -7.22412
29 2 84.8889 96.1627 104.315
28 1 85.9285 96.6508 104.478
87 2 56.4343 -24.5968 144.924
85 1 55.4285 -24.6208 145.501
86 2 54.4227 -24.6448 146.079
134 2 102.888 47.3146 37.8449
133 1 102.992 46.9761 36.7402
41 2 -9.11244 -143.276 37.3366
90 2 -36.5109 -20.149 38.9105
52 1 -1.95927 108.965 44.1927
53 2 -2.5335 109.962 44.0418
40 1 -8.56947 -143.456 36.3274
19 1 -77.6446 -31.3297 -51.9362
20 2 -78.3593 -31.4984 -51.0383
21 2 -76.9298 -31.161 -52.8341
146 2 64.1406 2.02924 56.3491
144 2 69.3073 -33.5521 -48.4122
142 1 68.8578 -34.3452 -47.6949
143 2 68.4084 -35.1383 -46.9775
145 1 63.4498 1.36564 55.6948
147 2 62.7591 0.702053 55.0405
42 2 -8.02651 -143.635 35.3182
135 2 103.095 46.6376 35.6356
132 2 -5.7155 122.836 105.265
48 2 -0.713859 -30.4756 -41.1214
23 2 -4.30242 -62.8441 -114.983
131 2 -4.20811 121.147 104.758
46 1 -0.5745 -30.8187 -40.0221
47 2 -0.435142 -31.1618 -38.9228
24 2 -5.29665 -61.8947 -116.851
31 1 27.4449 -23.2966 -36.8529
32 2 26.6882 -23.1548 -37.7205
22 1 -4.79953 -62.3694 -115.917
33 2 28.2017 -23.4385 -35.9853
130 1 -4.9618 121.992 105.012
141 2 107.564 -9.48005 80.1114
128 2 -118.854 -51.161 -28.3824
56 2 -10.1144 95.1035 -31.8779
127 1 -117.845 -51.1272 -28.9548
55 1 -9.19003 95.2269 -32.5678
57 2 -8.26567 95.3503 -33.2576
129 2 -116.837 -51.0934 -29.5272
54 2 -1.38504 107.969 44.3435
139 1 107.917 -8.37934 80.016
2 2 32.2774 163.678 16.3607
13 1 -38.7117 136.848 10.4536
15 2 -37.7627 136.805 11.1192
1 1 31.8036 164.736 16.3991
3 2 31.3299 165.794 16.4374
36 2 26.2268 94.7683 16.3027
34 1 27.1779 94.6931 15.6429
35 2 28.129 94.618 14.9831
136 1 166.529 -5.086 -61.5082
137 2 167.131 -6.05391 -61.7257
138 2 165.928 -4.11809 -61.2906
14 2 -39.6607 136.892 9.78793
51 2 35.2522 57.3194 98.9969
49 1 35.4221 58.3486 98.4893
115 1 -85.1824 68.1497 -16.5048
116 2 -84.2158 67.5463 -16.7223
117 2 -86.1489 68.7531 -16.2873
59 2 -0.466804 -7.86566 19.7275
58 1 -1.4591 -8.38028 20.0376
150 2 19.0856 -13.8747 -82.275
60 2 -2.45139 -8.8949 20.3476
50 2 35.592 59.3777 97.9818
84 2 25.4842 -45.0208 -3.28094
83 2 26.8668 -45.1689 -1.42382
82 1 26.1755 -45.0948 -2.35238
ITEM: TIMESTEP
60000
ITEM: NUMBER OF ATOMS
150
ITEM: BOX BOUNDS pp pp pp
0.0000000000000000e+00 3.6000000000000000e+01
0.0000000000000000e+00 3.6000000000000000e+01
0.0000000000000000e+00 3.6000000000000000e+01
ITEM: ATOMS id type xu yu zu
5 2 44.0517 44.4439 73.2602
4 1 43.0187 44.3664 73.7824
111 2 1.5038 3.67768 -70.8303
6 2 41.9858 44.289 74.3045
109 1 2.43345 4.34489 -71.0205
7 1 38.4131 -64.8633 116.212
46 1 12.3031 -26.7665 -35.9132
110 2 3.3631 5.0121 -71.2107
19 1 -56.5073 -30.6693 -67.3321
21 2 -55.686 -30.5551 -66.521
20 2 -57.3287 -30.7835 -68.1432
44 2 41.4706 16.3199 3.30376
9 2 37.6026 -64.3689 116.878
71 2 37.1934 47.8592 7.95581
70 1 37.0754 46.9888 8.71339
43 1 42.4335 15.8574 3.75604
100 1 153.754 9.39788 79.6368
102 2 154.838 9.0759 79.8948
133 1 125.86 46.0263 42.8291
8 2 39.2235 -65.3577 115.545
135 2 124.752 46.2145 42.5416
101 2 152.67 9.71985 79.3789
48 2 13.1815 -26.7336 -35.1563
45 2 43.3964 15.3949 4.20831
146 2 49.8225 -26.9076 44.6664
145 1 49.8099 -25.7863 44.3698
147 2 49.7973 -24.6649 44.0732
113 2 44.0277 5.58582 52.9069
2 2 49.1073 155.046 15.0228
112 1 44.1604 4.72844 53.6769
3 2 49.9204 153.673 13.3386
1 1 49.5138 154.359 14.1807
72 2 36.9575 46.1183 9.47097
53 2 -25.8664 121.293 47.4827
52 1 -25.7257 120.675 46.511
54 2 -25.585 120.058 45.5392
15 2 -71.0617 156.823 -13.1313
81 2 42.2618 88.2552 -17.3226
79 1 43.3236 88.1157 -16.8769
141 2 125.983 7.7343 92.3971