ITEM: TIMESTEP
0
ITEM: NUMBER OF ATOMS
600
ITEM: BOX BOUNDS pp pp pp
0.0000000000000000e+00 3.6000000000000000e+01
0.0000000000000000e+00 3.6000000000000000e+01
0.0000000000000000e+00 3.6000000000000000e+01
ITEM: ATOMS id type xu yu zu
69 2 15.2281 44.201 4.37817
494 2 38.2281 16.8249 43.9942
191 2 39.3846 12.9824 -31.566
192 2 38.8739 15.17 -32.1458
321 2 6.76543 16.8885 1.44359
320 2 5.96268 15.6619 3.24177
319 1 6.36406 16.2752 2.34268
504 2 41.9278 -59.427 37.8479
190 1 39.1292 14.0762 -31.8559
502 1 41.8446 -60.5579 38.0924
503 2 41.7614 -61.6887 38.337
88 1 6.89138 13.846 8.56556
89 2 6.31967 14.7164 8.05457
493 1 37.8895 15.795 44.4069
495 2 37.551 14.7651 44.8196
67 1 14.8812 45.2989 4.23706
456 2 10.0366 10.8175 1.94393
359 2 15.9076 -25.3087 36.4446
537 2 10.424 17.3332 36.4307
68 2 14.5343 46.3968 4.09595
455 2 11.0516 12.6772 0.998654
454 1 10.5441 11.7473 1.47129
358 1 15.3057 -26.2331 36.0856
591 2 15.2102 52.0575 0.242588
428 2 -18.0993 11.7329 -27.0116
101 2 4.31144 48.7703 10.1062
100 1 4.35503 47.6186 10.2379
102 2 4.39863 46.467 10.3695
307 1 36.5697 49.3689 52.8796
363 2 4.1196 52.2233 10.4557
361 1 5.16877 52.1234 10.9403
362 2 6.21793 52.0235 11.4249
309 2 37.581 49.2648 52.3208
467 2 44.3138 -23.7795 -18.0774
549 2 8.78429 11.9161 12.9085
7 1 6.41205 10.1953 17.0884
8 2 6.50481 10.3921 15.9489
548 2 8.87128 10.215 14.4836
547 1 8.82779 11.0656 13.6961
92 2 36.8678 17.745 14.3614
270 2 36.5163 14.5378 48.345
268 1 36.2164 13.4603 48.6525
91 1 36.734 17.9419 13.2261
90 2 7.46309 12.9755 9.07656
331 1 10.4565 -26.6481 10.7607
333 2 10.8465 -26.9589 11.8081
427 1 -18.7131 12.6575 -26.6739
353 2 51.081 87.3025 16.9309
332 2 10.0665 -26.3374 9.71338
452 2 16.279 16.9205 46.4778
352 1 51.7259 87.2033 15.9718
451 1 15.327 17.2684 47.042
354 2 52.3708 87.104 15.0127
453 2 14.375 17.6162 47.6062
462 2 14.2363 11.9737 15.7672
429 2 -19.3268 13.5821 -26.3362
461 2 12.1762 12.0828 16.8285
460 1 13.2063 12.0283 16.2978
466 1 45.0188 -22.8606 -18.0129
228 2 42.3617 42.6323 -11.37
227 2 40.0555 42.7993 -11.1807
226 1 41.2086 42.7158 -11.2754
32 2 40.5128 39.8975 -9.93533
473 2 36.2438 72.8229 22.4948
31 1 39.9166 38.9305 -10.1702
33 2 39.3204 37.9636 -10.4051
224 2 16.3034 6.4056 23.6955
223 1 17.4198 6.71694 23.6466
459 2 -23.9665 37.5893 -12.4474
457 1 -23.1633 36.7806 -12.2315
574 1 50.227 5.28964 26.1713
575 2 50.8965 4.64532 25.4769
569 2 9.95439 -28.2749 -45.1573
576 2 49.5575 5.93396 26.8657
329 2 39.0857 -21.8975 19.0536
288 2 39.5883 14.8258 24.555
286 1 40.6832 14.8638 24.9361
287 2 41.7782 14.9019 25.3172
564 2 7.74591 15.487 20.9119
563 2 6.26962 14.9301 22.6127
562 1 7.00776 15.2085 21.7623
328 1 39.8967 -22.4577 19.6653
408 2 -28.0771 -19.4605 -9.04125
330 2 40.7076 -23.0179 20.2769
9 2 6.31928 9.99857 18.2278
312 2 -22.3933 15.6688 24.592
468 2 45.7239 -21.9417 -17.9484
55 1 16.407 11.0736 25.6605
579 2 11.9282 83.8648 20.795
18 2 16.9402 12.3339 19.1471
273 2 51.8893 -21.2451 22.2456
344 2 17.7755 13.9742 24.7386
310 1 -21.5886 15.6224 25.4262
271 1 51.1271 -22.1093 22.379
57 2 16.3785 10.3951 24.7201
578 2 12.9737 81.8026 20.6032
577 1 12.4509 82.8337 20.6991
311 2 -20.7839 15.5759 26.2604
56 2 16.4356 11.7521 26.601
272 2 50.3649 -22.9735 22.5125
16 1 17.7188 13.0565 18.681
124 1 43.2393 7.41354 -6.47689
125 2 42.7899 7.90853 -7.42486
126 2 43.6887 6.91855 -5.52892
349 1 38.5324 8.6541 -6.34626
350 2 39.2808 8.66933 -5.46012
351 2 37.784 8.63887 -7.2324
244 1 42.4827 1.67757 28.884
245 2 41.6359 1.84683 28.1095
45 2 4.31694 42.8943 -1.54594
43 1 3.48523 42.6209 -0.784921
44 2 2.65352 42.3476 -0.0239049
342 2 0.594858 8.64624 33.4772
246 2 43.3296 1.50831 29.6584
447 2 0.0540834 0.745388 28.4912
40 1 5.59882 36.3303 -3.35456
41 2 5.61115 37.3262 -3.94925
476 2 10.7174 44.287 -3.30144
54 2 -23.1142 6.72498 35.1408
475 1 11.4259 44.591 -4.1681
263 2 10.7641 0.362041 -5.53029
275 2 50.1577 0.337129 28.8448
74 2 10.5875 6.03445 -5.96998
73 1 11.6381 5.55848 -5.8462
66 2 17.1791 8.4659 27.5401
65 2 17.7196 6.25339 27.9818
64 1 17.4493 7.35964 27.7609
75 2 12.6887 5.08252 -5.72241
53 2 -21.2556 6.11086 33.8955
568 1 9.83622 -27.6698 -44.1748
264 2 10.2923 2.17478 -6.89915
52 1 -22.1849 6.41792 34.5181
262 1 10.5282 1.26841 -6.21472
477 2 12.1345 44.8951 -5.03476
360 2 14.7038 -27.1575 35.7267
570 2 9.71805 -27.0646 -43.1922
120 2 43.6737 11.3605 33.7287
118 1 43.5269 10.5681 32.8944
119 2 43.3801 9.7757 32.06
426 2 43.6818 15.1184 32.6521
407 2 -28.9562 -20.3058 -7.06766
425 2 44.2152 17.1429 31.6525
424 1 43.9485 16.1306 32.1523
406 1 -28.5167 -19.8831 -8.05445
111 2 16.7766 -19.6194 33.6038
589 1 15.3476 51.0184 -0.25427
550 1 12.8229 13.9446 -1.70242
109 1 17.2154 -18.5526 33.4807
535 1 9.98372 16.9947 35.4123
129 2 52.1185 9.46092 30.2475
348 2 15.6927 13.8181 -6.08626
127 1 51.1861 9.6743 29.5912
567 2 10.7089 51.4588 -5.87681
128 2 50.2537 9.88768 28.9349
566 2 12.4704 52.2701 -7.15001
552 2 12.6344 14.8492 -1.00115
392 2 11.89 11.7624 -8.96298
391 1 12.7778 12.3397 -8.48947
393 2 13.6656 12.9169 -8.01596
346 1 14.8041 14.3623 -5.57652
384 2 -24.7848 12.4156 -5.43712
551 2 13.0114 13.04 -2.40369
347 2 13.9154 14.9064 -5.06678
565 1 11.5897 51.8645 -6.51341
382 1 -25.2324 11.783 -4.57392
383 2 -25.68 11.1504 -3.71073
590 2 15.4851 49.9792 -0.751128
536 2 9.54345 16.6562 34.3938
356 2 17.9377 9.29726 -1.75573
255 2 39.8795 19.1973 3.62915
161 2 40.3505 23.0876 41.7582
130 1 72.2727 -12.3593 7.09664
160 1 39.2427 22.8529 41.5063
162 2 38.135 22.6183 41.2544
131 2 72.6061 -11.3023 6.75417
496 1 41.8118 22.7156 39.393
498 2 41.4765 21.635 39.6489
254 2 40.3228 19.9949 5.76211
253 1 40.1012 19.5961 4.69563
497 2 42.1471 23.7961 39.137
24 2 2.48011 23.7918 44.7097
152 2 1.54817 19.7318 8.65692
22 1 3.60329 23.7624 44.9981
439 1 1.57718 34.0256 40.108
441 2 1.17273 34.7326 40.934
440 2 1.98162 33.3187 39.2821
316 1 13.6733 28.6784 44.6054
318 2 14.7538 28.4321 44.2627
144 2 11.7167 28.1244 0.293876
317 2 12.5928 28.9247 44.9481
315 2 2.46579 20.4317 15.4059
313 1 3.08935 19.7823 14.6744
314 2 3.71291 19.1329 13.9429
553 1 40.481 20.1747 46.9478
291 2 7.90734 61.1491 11.4362
289 1 6.81408 61.3978 11.7337
147 2 2.45344 24.7059 47.4728
145 1 1.44169 25.2651 47.3767
290 2 5.72083 61.6466 12.0313
554 2 41.1824 19.2821 46.7095
23 2 4.72647 23.7329 45.2866
146 2 0.429946 25.8244 47.2807
555 2 39.7795 21.0673 47.186
93 2 36.6002 18.1388 12.0908
151 1 0.673851 20.0893 9.33023
420 2 12.015 24.0486 9.38592
419 2 11.7287 21.8247 9.98115
532 1 16.3756 19.0051 53.991
326 2 16.9779 20.2259 45.9054
533 2 17.2503 19.1692 53.2469
325 1 17.7027 20.2131 46.811
418 1 11.8718 22.9366 9.68354
401 2 42.3448 23.5931 -9.38995
400 1 42.4835 22.6992 -10.1161
234 2 -28.9693 20.1271 22.439
185 2 38.7512 60.8526 23.0555
184 1 38.8508 61.8394 22.454
186 2 38.9505 62.8263 21.8525
402 2 42.6222 21.8054 -10.8423
517 1 8.99564 19.8176 -9.47428
518 2 7.923 19.5665 -9.11097
232 1 -29.662 19.431 23.0566
182 2 2.74528 -11.6322 62.7063
233 2 -30.3546 18.735 23.6742
122 2 16.5267 18.559 25.9109
121 1 17.3336 18.0151 26.5422
373 1 17.8176 26.4459 -14.1569
14 2 49.0841 19.7696 -11.5189
13 1 49.0101 19.9682 -12.6594
15 2 48.9361 20.1667 -13.7999
85 1 15.1761 22.8836 24.5174
448 1 16.7141 23.3277 56.0683
449 2 16.9807 23.1905 57.1889
86 2 14.3367 23.5799 24.9125
450 2 16.4475 23.4649 54.9477
87 2 16.0155 22.1873 24.1222
215 2 9.57877 22.8667 23.2291
216 2 9.96444 20.633 22.7351
214 1 9.7716 21.7499 22.9821
519 2 10.0683 20.0687 -9.83759
374 2 17.0222 26.7711 -13.3776
534 2 15.501 18.841 54.7352
4 1 3.34122 29.0524 26.9836
6 2 2.63091 28.1527 26.8055
140 2 10.6904 34.6472 24.7312
139 1 10.5205 35.1137 25.7796
141 2 10.3506 35.5803 26.8279
458 2 -22.3602 35.9719 -12.0156
98 2 1.1841 57.5584 -1.07867
371 2 1.58573 25.7038 -2.81783
46 1 0.449151 23.4135 -4.74824
48 2 0.264214 22.8838 -3.73297
370 1 1.26413 26.0181 -1.74855
47 2 0.634087 23.9433 -5.7635
97 1 2.22076 57.8984 -1.47277
372 2 0.942516 26.3324 -0.679259
29 2 8.4752 20.058 -5.83634
99 2 3.25741 58.2385 -1.86687
157 1 36.1763 19.7044 29.1123
183 2 2.03841 -13.6611 63.5816
158 2 36.7299 19.1506 28.2565
181 1 2.39185 -12.6466 63.1439
38 2 -26.2527 22.8149 27.2126
30 2 10.3948 18.801 -5.49387
39 2 -25.6533 22.6283 29.4461
110 2 17.6542 -17.4859 33.3576
37 1 -25.953 22.7216 28.3293
28 1 9.43501 19.4295 -5.66511
432 2 12.6292 -11.2518 28.2333
430 1 12.1401 -10.5917 29.0522
368 2 17.7734 22.3064 35.9721
512 2 17.926 -9.41224 31.4564
595 1 15.4686 -9.46826 29.5942
597 2 15.4069 -10.6057 29.3748
431 2 11.651 -9.93154 29.8711
171 2 40.6733 32.1773 -0.193903
117 2 1.01928 30.1009 -0.489868
242 2 5.76511 33.5679 30.6966
169 1 40.4996 32.2917 -1.33512
42 2 5.58648 35.3344 -2.75986
170 2 40.326 32.406 -2.47634
599 2 7.54484 33.2977 -1.51802
598 1 8.33966 34.047 -1.90857
241 1 6.02865 32.4479 30.8441
243 2 6.2922 31.3279 30.9916
5 2 4.05153 29.952 27.1617
274 1 50.3873 -0.799836 28.83
276 2 50.6168 -1.9368 28.8151
600 2 9.13447 34.7962 -2.29911
481 1 10.1245 33.2009 -5.20138
482 2 9.13609 33.0959 -4.60334
596 2 15.5302 -8.33087 29.8136
483 2 11.1129 33.3059 -5.79941
143 2 12.2354 30.019 -0.94058
142 1 11.976 29.0717 -0.323353
296 2 19.4163 7.79361 39.9512
107 2 55.8483 7.38171 7.0888
295 1 18.7784 7.10753 39.2671
106 1 56.5476 6.91707 7.88923
108 2 57.247 6.45244 8.68965
297 2 18.1404 6.42144 38.583
528 2 27.5006 8.07969 6.09721
175 1 -5.93257 8.9166 3.07715
177 2 -5.62021 8.71744 1.97789
21 2 32.4085 2.53946 0.565932
527 2 29.2007 8.83792 7.48182
19 1 31.7925 1.56801 0.415907
20 2 31.1766 0.596564 0.265884
526 1 28.3506 8.4588 6.78951
499 1 62.2005 9.32992 36.2327
478 1 26.741 10.7714 40.9856
480 2 26.5195 10.3754 39.918
479 2 26.9625 11.1674 42.0532
150 2 -15.1329 47.2482 2.07002
148 1 -15.9824 46.5241 1.75437
149 2 -16.8319 45.8 1.43874
303 2 -12.1907 10.9997 7.8057
301 1 -12.1885 10.4874 6.76492
302 2 -12.1862 9.97522 5.72415
572 2 18.6968 47.1223 40.566
80 2 60.4715 47.9985 37.0995
62 2 23.347 14.6737 44.4735
559 1 26.9893 -19.8983 3.20704
240 2 23.8148 -19.7991 41.5636
560 2 25.8799 -19.5726 3.11376
239 2 23.2419 -22.0315 41.2982
238 1 23.5283 -20.9153 41.4309
81 2 60.4066 49.97 38.3207
79 1 60.4391 48.9843 37.7101
571 1 18.6136 48.0369 41.2747
573 2 18.5304 48.9514 41.9834
385 1 34.1623 14.2918 5.64834
501 2 63.2545 9.29772 36.7161
176 2 -6.24494 9.11576 4.1764
305 2 -6.80153 13.6524 36.8285
306 2 -8.46701 12.0575 37.0832
208 1 -6.98222 15.8966 44.7873
561 2 28.0988 -20.2239 3.30032
304 1 -7.63427 12.855 36.9558
386 2 33.7187 13.3251 5.18542
487 1 -4.72584 14.1257 3.0384
387 2 34.6059 15.2585 6.11126
488 2 -3.90948 14.8835 2.71431
489 2 -5.54221 13.368 3.36249
209 2 -8.00672 15.3961 44.574
413 2 22.2757 2.41532 50.2292
412 1 22.9121 2.92769 49.4058
414 2 23.5485 3.44006 48.5823
509 2 -12.5849 3.90483 16.5493
322 1 25.5426 5.80844 9.96614
323 2 24.5385 5.81549 10.5469
508 1 -12.5157 4.56052 17.5037
284 2 19.6393 38.312 11.9254
59 2 -16.0507 8.22996 11.2988
324 2 26.5468 5.8014 9.38539
285 2 21.1356 36.7012 11.1845
283 1 20.3875 37.5066 11.5549
465 2 26.9488 38.4103 -19.8714
463 1 27.2765 38.02 -18.8293
58 1 -16.6333 9.05406 11.8707
60 2 -17.2159 9.87817 12.4425
434 2 -9.77312 10.6305 16.2418
435 2 -10.126 11.6664 14.1961
433 1 -9.94958 11.1484 15.2189
529 1 58.0413 -24.4912 11.5255
530 2 58.576 -25.3686 12.0639
63 2 24.8008 15.6815 45.9745
61 1 24.0739 15.1776 45.224
12 2 18.9116 16.2447 13.4873
11 2 19.588 14.8967 15.2501
394 1 23.0041 52.3395 49.1505
395 2 23.7203 53.0616 48.5927
396 2 22.2878 51.6174 49.7083
531 2 57.5066 -23.6138 10.9871
10 1 19.2498 15.5707 14.3687
515 2 18.4805 -23.2142 48.7529
516 2 18.4482 -23.8586 50.9813
514 1 18.4644 -23.5364 49.8671
308 2 35.5585 49.4729 53.4383
269 2 35.9165 12.3827 48.96
366 2 31.7637 15.0846 17.0332
364 1 30.8895 15.108 17.7953
210 2 -5.95772 16.3971 45.0007
510 2 -12.4466 5.21621 18.4581
225 2 18.5361 7.02828 23.5978
446 2 -0.159207 1.89814 26.4892
464 2 27.6041 37.6298 -17.7872
472 1 35.8933 72.2022 23.4099
345 2 19.241 14.143 22.948
17 2 18.4974 13.7791 18.2149
343 1 18.5083 14.0586 23.8433
365 2 30.0154 15.1313 18.5575
294 2 32.7486 0.0288199 29.7598
292 1 32.8669 0.662229 28.7952
293 2 32.9852 1.29564 27.8307
486 2 34.7238 5.78058 -8.63755
484 1 34.9867 4.87175 -7.96639
485 2 35.2497 3.96291 -7.29523
340 1 -0.56347 8.5896 33.4514
341 2 -1.7218 8.53297 33.4256
445 1 -0.0525621 1.32176 27.4902
355 1 19.0212 9.71126 -1.74261
357 2 20.1047 10.1253 -1.72949
546 2 18.8701 48.7631 33.3073
267 2 23.7426 -19.2543 29.5186
248 2 21.3329 16.1889 31.9236
545 2 20.1744 49.4353 35.1043
544 1 19.5222 49.0992 34.2058
266 2 25.2478 -18.8958 27.7899
247 1 21.2965 17.3163 32.1942
500 2 61.1465 9.36212 35.7493
260 2 -10.0544 10.6487 -3.41691
278 2 25.7385 17.7733 34.0178
265 1 24.4952 -19.0751 28.6542
259 1 -9.13886 10.9237 -2.7598
123 2 18.1405 17.4712 27.1736
523 1 -37.4353 -26.8087 29.9141
525 2 -36.4489 -26.8426 30.5236
219 2 29.3764 17.5905 31.1169
261 2 -8.22336 11.1988 -2.1027
524 2 -38.4217 -26.7748 29.3047
339 2 20.1058 23.9216 5.65483
338 2 19.109 24.8389 3.77139
337 1 19.6074 24.3803 4.71311
154 1 58.9571 21.4288 40.5946
156 2 58.9708 20.855 41.6026
388 1 21.8546 -11.0771 0.786997
541 1 18.211 20.217 4.99189
155 2 58.9435 22.0027 39.5865
542 2 18.0741 21.2363 5.5285
404 2 19.6333 21.5053 37.8684
543 2 18.348 19.1978 4.45529
403 1 19.7187 20.451 37.3922
390 2 22.0626 -11.4157 1.8768
27 2 26.3401 22.3673 5.6466
405 2 19.804 19.3968 36.916
492 2 -10.3795 21.3163 8.88131
586 1 32.9417 54.7394 5.57502
557 2 34.7291 18.7764 37.2012
26 2 27.7717 22.2213 3.82681
203 2 -3.55551 24.0907 38.3455
539 2 32.6991 20.7255 7.80123
202 1 -4.27912 23.1847 38.38
25 1 27.0559 22.2943 4.7367
187 1 -41.3672 54.4662 1.86177
132 2 71.9394 -13.4162 7.43911
189 2 -42.439 54.6581 1.46176
188 2 -40.2954 54.2742 2.26178
204 2 -5.00274 22.2787 38.4144
588 2 33.7774 55.3304 5.02925
556 1 35.1235 18.5354 38.2652
538 1 32.0047 20.4736 8.69556
587 2 32.106 54.1483 6.12078
558 2 35.5178 18.2945 39.3291
335 2 24.4527 32.3979 2.08147
113 2 22.3584 27.1624 41.6499
334 1 24.9729 31.3865 2.30935
114 2 21.9225 28.5258 43.4757
112 1 22.1404 27.8441 42.5628
336 2 25.4931 30.375 2.53723
235 1 29.5684 28.0251 1.98375
236 2 28.8123 27.3098 2.49582
237 2 30.3245 28.7404 1.47168
444 2 -2.08523 -5.04183 8.62015
442 1 -1.93871 -4.25938 7.77641
443 2 -1.79218 -3.47692 6.93268
410 2 -16.4136 18.1911 15.2127
197 2 24.3581 26.4905 10.091
415 1 23.4445 22.8163 14.169
198 2 25.9174 25.7312 11.6319
409 1 -16.286 19.3426 15.2696
417 2 23.6374 23.4519 13.218
411 2 -16.1585 20.4942 15.3266
200 2 26.6656 -15.7252 49.975
196 1 25.1377 26.1109 10.8614
199 1 26.2281 -15.2107 49.0319
83 2 -9.54411 18.7505 10.9201
416 2 23.2517 22.1807 15.1201
327 2 18.4275 20.2003 47.7166
491 2 -10.716 23.5775 9.27636
201 2 25.7907 -14.6961 48.0888
490 1 -10.5478 22.4469 9.07884
135 2 22.9906 18.0829 51.4486
133 1 22.7434 18.8275 52.3031
134 2 22.4962 19.5721 53.1575
82 1 -8.75813 18.6621 10.0716
1 1 -6.37123 21.3575 12.3091
377 2 32.4085 -15.506 87.3813
2 2 -5.61045 22.0335 12.8658
3 2 -7.13201 20.6816 11.7524
378 2 33.728 -16.0201 85.5436
376 1 33.0682 -15.763 86.4624
70 1 27.244 21.5932 17.4322
72 2 27.727 22.249 16.6063
540 2 31.3102 20.2218 9.5899
84 2 -7.97215 18.5736 9.22306
153 2 -0.200463 20.4469 10.0035
594 2 21.8619 32.5245 47.1105
172 1 22.9908 -7.34088 13.1823
593 2 20.4065 33.5046 45.5927
173 2 23.5722 -8.3432 13.2363
174 2 22.4094 -6.33857 13.1282
592 1 21.1342 33.0146 46.3516
423 2 23.6447 30.4225 -19.9816
421 1 23.2841 30.4336 -18.8792
583 1 -12.9682 23.2209 20.4032
585 2 -12.945 23.465 19.2694
584 2 -12.9913 22.9768 21.537
282 2 18.8616 26.5661 26.6312
507 2 21.2996 26.057 18.7411
36 2 23.497 20.6417 26.9232
193 1 20.1621 -12.1111 22.3217
34 1 23.3525 20.4938 25.7818
168 2 21.2201 20.3285 19.9134
212 2 59.6737 25.7168 57.4662
195 2 20.219 -11.6982 23.4042
35 2 23.2081 20.3459 24.6403
194 2 20.1051 -12.524 21.2391
163 1 18.8784 19.9817 58.7051
505 1 20.6969 25.0939 18.5068
375 2 18.6129 26.1207 -14.9362
166 1 20.175 20.6107 19.4965
213 2 60.7212 26.57 59.3523
211 1 60.1975 26.1434 58.4093
165 2 19.6113 20.8703 58.5684
167 2 19.13 20.893 19.0795
164 2 18.1455 19.093 58.8419
437 2 -13.4417 -11.6731 26.1414
71 2 26.7611 20.9373 18.2582
506 2 20.0942 24.1308 18.2726
436 1 -14.065 -12.3383 26.8587
50 2 -0.737601 56.5366 -10.5278
51 2 -1.03539 58.8372 -10.5598
95 2 30.6251 23.6037 25.7239
49 1 -0.886493 57.6869 -10.5438
94 1 30.2383 23.9677 26.7551
422 2 22.9235 30.4448 -17.7767
474 2 35.5427 71.5815 24.325
207 2 19.4926 22.6531 31.6346
205 1 20.2139 23.4672 32.0376
206 2 20.9352 24.2814 32.4407
397 1 -11.5103 59.9484 33.586
179 2 -9.46465 -13.297 -7.78392
399 2 -11.4798 59.6605 32.4627
178 1 -10.4503 -13.409 -7.18267
180 2 -11.436 -13.5209 -6.58141
398 2 -11.5409 60.2362 34.7093
229 1 21.3595 20.4447 65.1973
249 2 21.26 18.4437 32.4648
230 2 22.0378 20.9984 65.9582
256 1 -13.9163 -14.8832 -0.884223
277 1 26.1815 18.7863 34.3689
231 2 20.6812 19.891 64.4365
279 2 26.6245 19.7993 34.72
258 2 -14.8083 -14.149 -0.988389
280 1 18.676 25.75 27.4344
138 2 23.3161 26.9721 28.8455
257 2 -13.0243 -15.6175 -0.780057
389 2 21.6467 -10.7384 -0.302802
438 2 -14.6883 -13.0034 27.5761
367 1 18.083 23.378 35.6535
281 2 18.4903 24.9338 28.2376
251 2 24.4425 -9.14324 -1.99241
369 2 18.3927 24.4495 35.3349
222 2 29.2376 20.2911 33.3111
471 2 33.7739 25.8661 -4.85723
469 1 32.8152 25.5698 -4.27535
104 2 33.1024 20.9306 35.8286
105 2 32.8192 19.1046 34.4257
103 1 32.9608 20.0176 35.1272
220 1 29.6029 21.0131 34.1422
221 2 29.9681 21.7351 34.9734
217 1 28.3217 18.0379 31.2984
470 2 31.8564 25.2734 -3.69346
96 2 29.8514 24.3318 27.7863
218 2 27.2669 18.4853 31.48
159 2 35.6227 20.2582 29.9681
136 1 22.5096 27.0702 29.6734
137 2 21.7031 27.1684 30.5013
511 1 18.6702 -8.61958 31.8606
513 2 19.4144 -7.82692 32.2649
250 1 24.045 -8.53281 -1.08962
252 2 23.6476 -7.92239 -0.186835
299 2 25.1622 -41.4036 -2.21815
300 2 24.4899 -39.7881 -3.7415
298 1 24.826 -40.5959 -2.97982
520 1 27.3943 28.0389 28.5331
581 2 27.8791 31.6019 -1.20619
582 2 28.6853 33.7298 -1.65819
116 2 -1.04709 31.0971 -0.836464
76 1 31.4569 29.4138 -38.7848
77 2 31.8587 28.8405 -39.7097
521 2 27.0372 27.0123 28.128
115 1 -0.013907 30.599 -0.663167
379 1 28.197 29.1702 -3.10956
380 2 27.6943 29.9452 -3.81121
522 2 27.7514 29.0655 28.9383
381 2 28.6996 28.3953 -2.40791
580 1 28.2822 32.6658 -1.43219
78 2 31.0551 29.9872 -37.8599
ITEM: TIMESTEP
10000
ITEM: NUMBER OF ATOMS
600
ITEM: BOX BOUNDS pp pp pp
0.0000000000000000e+00 3.6000000000000000e+01
0.0000000000000000e+00 3.6000000000000000e+01
0.0000000000000000e+00 3.6000000000000000e+01
ITEM: ATOMS id type xu yu zu
153 2 1.94465 37.4538 2.52013
151 1 2.83814 36.928 3.04053
152 2 3.73163 36.4022 3.56093
362 2 11.3489 51.9709 1.35608
424 1 38.5598 8.39718 41.7366
361 1 12.1735 52.7853 1.30676
426 2 38.1853 7.41319 41.2497
307 1 14.491 47.9885 41.7103
296 2 16.0617 1.06184 41.5236
322 1 14.328 7.78587 2.79917
443 2 -19.8895 1.84054 2.73525
308 2 14.5435 47.065 41.0103
442 1 -21.028 1.75083 2.93875
550 1 11.7208 9.42675 5.00189
444 2 -22.1665 1.66113 3.14225
309 2 14.4385 48.912 42.4104
217 1 37.1301 13.6867 42.2898
187 1 -22.6169 49.9868 2.79826
548 2 8.11488 14.4825 0.731201
549 2 8.80928 14.0254 2.89713
561 2 39.7468 -19.1296 1.23412
324 2 14.8858 8.64355 3.34584
559 1 39.4337 -19.9041 0.429267
363 2 12.998 53.5997 1.25744
425 2 38.9344 9.38117 42.2235
547 1 8.46208 14.2539 1.81416
330 2 46.5134 -21.6079 8.47891
209 2 6.01485 15.9232 39.8
208 1 5.61237 16.9961 39.9801
219 2 37.7907 13.1015 41.537
189 2 -23.295 49.9666 3.7392
218 2 36.4695 14.2719 43.0426
552 2 11.1898 10.3898 5.37092
323 2 13.7702 6.92819 2.25251
551 2 12.2518 8.46372 4.63285
188 2 -21.9388 50.007 1.85732
295 1 17.1541 0.673982 41.4793
402 2 37.7272 4.10708 0.115552
553 1 36.2968 17.4471 49.1298
377 2 11.8698 -18.5395 83.0676
328 1 47.5334 -21.3232 8.95246
466 1 46.9661 -23.7717 -17.9387
468 2 47.292 -24.7159 -18.5285
329 2 48.5534 -21.0386 9.426
62 2 16.8031 18.2263 53.8629
555 2 37.3734 17.8361 48.9421
245 2 41.3374 4.52282 26.3657
223 1 15.3472 15.8719 19.12
224 2 14.3574 16.4739 19.1788
457 1 -32.4855 38.4711 -10.9334
458 2 -31.8856 38.7866 -11.8748
459 2 -33.0854 38.1556 -9.99207
320 2 2.09612 5.8064 -13.4849
319 1 2.89232 6.5361 -13.0616
321 2 3.68851 7.2658 -12.6382
127 1 48.8039 11.8337 26.0379
393 2 8.13929 1.07103 -9.35449
283 1 40.8372 16.8144 22.0774
350 2 37.6066 5.10698 -10.6199
148 1 -22.0399 40.4252 -12.316
356 2 17.4287 12.2308 -11.9725
150 2 -20.917 40.2793 -12.0644
355 1 17.7386 11.5145 -11.1143
128 2 47.9304 12.0986 25.3221
149 2 -23.1629 40.5711 -12.5676
556 1 41.5206 12.0307 21.2417
557 2 40.5837 12.0775 21.924
515 2 8.50781 -19.4613 55.085
567 2 4.34458 52.1211 -10.1928
565 1 4.57046 51.1314 -9.63148
558 2 42.4575 11.9838 20.5593
514 1 8.23738 -20.1867 55.9489
503 2 44.8755 -58.7761 23.099
591 2 16.0859 49.6665 -14.2735
590 2 14.9333 47.6851 -13.9156
504 2 46.7793 -59.1646 21.8314
589 1 15.5096 48.6758 -14.0945
349 1 36.5346 4.93726 -10.2105
516 2 7.96695 -20.9121 56.8128
254 2 53.6301 14.6031 -9.76515
344 2 16.5441 8.87193 21.0622
343 1 15.8114 8.03894 21.4011
310 1 -23.4327 10.3047 21.1139
312 2 -23.3496 11.0763 20.2517
311 2 -23.5158 9.53314 21.9761
345 2 15.0787 7.20594 21.74
502 1 45.8274 -58.9704 22.4652
285 2 41.0729 15.7103 21.811
327 2 13.3754 35.6357 59.3338
253 1 52.5026 14.4369 -9.9816
255 2 51.3752 14.2707 -10.1981
225 2 16.337 15.2698 19.0612
467 2 46.6402 -22.8275 -17.3488
45 2 1.5402 41.4674 -4.80673
43 1 1.47143 42.1781 -5.72087
44 2 1.40266 42.8889 -6.63502
129 2 49.6775 11.5689 26.7537
401 2 36.7727 5.6876 -1.28922
392 2 7.89779 1.05626 -7.04714
400 1 37.2499 4.89734 -0.586832
120 2 40.3454 6.38796 32.3886
348 2 8.79995 5.48632 -8.69286
81 2 53.4151 45.1271 32.988
317 2 6.2392 44.6696 64.5083
118 1 40.4103 7.17172 33.2413
119 2 40.4752 7.95547 34.094
347 2 10.7759 6.65152 -8.34584
316 1 5.88385 45.4921 65.2451
488 2 9.09363 9.95046 -6.44973
489 2 11.3468 10.0411 -6.99517
487 1 10.2202 9.99576 -6.72245
79 1 53.1017 44.2916 33.7291
382 1 -22.4447 2.69023 -6.968
384 2 -22.8345 1.8325 -6.29128
278 2 14.3145 9.66652 33.7917
383 2 -22.0549 3.54795 -7.64474
318 2 5.52849 46.3146 65.9818
80 2 52.7882 43.4561 34.4703
65 2 12.5448 7.14962 34.6294
562 1 8.3823 12.6097 32.1843
479 2 4.22885 15.2699 32.6465
564 2 7.50748 12.3785 32.9101
563 2 9.25712 12.8408 31.4584
480 2 3.19351 13.2614 33.1722
566 2 4.79634 50.1416 -9.07018
478 1 3.71118 14.2656 32.9094
68 2 17.0317 49.5435 -3.02199
475 1 9.24497 45.4368 -2.05959
163 1 15.3607 16.4034 67.4374
346 1 9.78791 6.06892 -8.51935
391 1 8.01854 1.06365 -8.20082
500 2 52.5585 17.6926 35.7687
165 2 16.4515 16.4349 67.0442
279 2 12.3913 9.87198 32.5105
477 2 9.34492 45.7326 -3.17676
164 2 14.2698 16.3719 67.8306
499 1 53.5364 17.0691 35.7439
64 1 11.5562 6.57336 34.8197
476 2 9.14502 45.1409 -0.942415
67 1 17.558 48.8056 -2.29806
277 1 13.3529 9.76925 33.1511
246 2 40.8093 5.22366 28.5133
66 2 10.5676 5.9971 35.0101
244 1 41.0733 4.87324 27.4395
560 2 39.1206 -20.6786 -0.375583
97 1 6.36186 58.8966 2.7923
418 1 44.6824 24.6941 5.48947
98 2 7.26863 58.1777 2.71103
99 2 5.45509 59.6154 2.87358
422 2 38.8445 24.5045 -29.4717
176 2 0.611014 -6.60725 1.47795
419 2 45.2875 23.979 4.80526
420 2 44.0774 25.4092 6.17368
546 2 17.3855 57.0084 42.155
1 1 0.826417 22.638 5.03133
83 2 2.163 19.7092 4.37361
84 2 4.13842 20.9215 4.27071
105 2 38.7329 19.9301 37.4467
453 2 3.25515 25.8399 38.7079
82 1 3.15071 20.3154 4.32216
423 2 40.0348 26.4931 -29.5771
545 2 16.509 59.1091 42.6031
421 1 39.4397 25.4988 -29.5244
291 2 -0.192855 62.5927 6.18248
460 1 7.96057 18.8045 0.909226
175 1 0.954096 -7.10933 2.46578
145 1 2.71825 32.0952 42.9922
147 2 2.06274 32.0474 42.0363
3 2 0.147656 22.4232 5.94716
451 1 2.63176 25.0695 38.105
452 2 2.00837 24.2991 37.5021
146 2 3.37376 32.1431 43.948
462 2 7.7733 17.7822 1.42455
177 2 1.29718 -7.61141 3.45361
472 1 37.321 92.1398 8.33995
103 1 39.7748 20.1823 37.0034
544 1 16.9472 58.0588 42.3791
2 2 1.50518 22.8528 4.1155
474 2 38.1653 92.9176 8.17335
461 2 8.14785 19.8267 0.393906
210 2 5.20989 18.069 40.1602
104 2 40.8167 20.4345 36.5602
92 2 39.0782 21.499 15.2005
91 1 39.0777 22.5588 15.6722
24 2 2.26432 22.8307 48.7476
93 2 39.0772 23.6185 16.1439
22 1 2.58922 22.0039 48.0017
332 2 10.3204 -12.0459 15.792
354 2 49.7901 91.4461 17.5819
23 2 2.91411 21.1771 47.2557
18 2 10.8575 19.9245 16.7306
333 2 9.04606 -11.8096 17.7162
456 2 15.5522 18.6383 15.0388
454 1 14.9348 19.607 14.8776
331 1 9.68324 -11.9277 16.7541
455 2 14.3173 20.5757 14.7164
378 2 13.3045 -17.5874 84.6224
16 1 10.8697 19.0944 15.9204
17 2 10.882 18.2644 15.1101
376 1 12.5871 -18.0634 83.845
61 1 17.8995 18.4244 53.5397
326 2 13.2696 34.9246 61.5396
411 2 -18.8839 19.4692 22.8152
580 1 39.1248 20.4461 23.946
582 2 38.2582 20.9401 23.354
280 1 6.32422 33.5104 20.7803
405 2 46.9644 28.5678 54.3549
581 2 39.9915 19.952 24.538
352 1 50.1014 91.3286 18.6932
353 2 50.4126 91.2111 19.8044
304 1 -19.7135 23.0111 57.4803
305 2 -20.3017 22.3048 56.7727
404 2 46.8506 30.3423 55.8451
56 2 17.9946 27.2329 23.4657
525 2 -32.1824 -36.8443 26.1494
306 2 -19.1252 23.7173 58.1879
408 2 -33.3233 -37.44 -12.3771
407 2 -33.3516 -39.5223 -11.3544
406 1 -33.3375 -38.4811 -11.8658
282 2 7.15574 33.5383 21.5886
134 2 16.7209 35.2699 60.5327
281 2 5.4927 33.4825 19.972
133 1 17.7551 34.7529 60.4403
4 1 17.0206 31.646 21.4529
284 2 40.6015 17.9185 22.3439
6 2 16.8491 32.7594 21.7295
409 1 -18.6401 18.9427 21.8108
5 2 17.192 30.5326 21.1763
325 1 13.3225 35.2802 60.4367
403 1 46.9075 29.455 55.1
273 2 53.3952 -13.7812 18.3689
410 2 -18.3963 18.4161 20.8064
124 1 36.0173 -3.30771 -9.44372
538 1 42.2695 26.5725 -4.38065
183 2 3.85553 -11.9592 69.2768
140 2 2.32943 19.7717 33.7839
181 1 3.93107 -12.4268 70.3357
182 2 4.00662 -12.8943 71.3946
539 2 41.3863 26.9109 -3.70901
540 2 43.1527 26.2342 -5.05229
232 1 -30.9361 25.1784 27.6776
358 1 17.282 -37.6146 28.6301
101 2 9.70034 25.0323 -8.20865
54 2 -28.2019 -1.52453 30.8527
122 2 16.7148 21.4889 34.5241
71 2 36.6902 21.993 32.3855
139 1 1.90726 18.9222 33.1162
191 2 45.607 21.9111 -36.8799
496 1 49.2215 20.8643 33.5501
498 2 49.541 19.7542 33.4446
497 2 48.9021 21.9745 33.6556
52 1 -28.474 -1.69534 29.738
360 2 17.3796 -38.5254 27.9184
192 2 43.4072 22.6477 -36.8503
126 2 36.7028 -2.39782 -9.22523
121 1 16.708 20.4902 33.9339
53 2 -28.746 -1.86615 28.6234
31 1 35.8008 33.5544 -1.81467
102 2 8.73284 26.8977 -7.2254
100 1 9.21659 25.965 -7.71702
32 2 36.4333 32.6914 -2.26279
524 2 -31.3922 -36.3159 28.2657
190 1 44.5071 22.2794 -36.8651
141 2 1.48509 18.0728 32.4485
72 2 36.3444 24.053 33.3951
234 2 -29.8079 25.0639 27.922
523 1 -31.7873 -36.5801 27.2076
70 1 36.5173 23.023 32.8903
123 2 16.7013 19.4916 33.3438
359 2 17.1844 -36.7038 29.3418
233 2 -32.0642 25.2929 27.4331
238 1 29.1688 -20.0619 43.4909
314 2 19.5583 4.25784 2.22375
592 1 -2.02521 47.8251 43.6589
261 2 -16.8485 17.8301 5.65243
594 2 -2.68396 47.9055 44.6103
537 2 -10.9042 11.3722 38.2971
573 2 23.1614 52.5091 42.1008
510 2 -6.48639 13.3225 1.22797
439 1 -8.12937 53.9673 40.2564
203 2 -5.08247 15.8043 36.5441
48 2 -14.6154 17.0045 2.69264
412 1 30.6818 12.8052 42.8335
494 2 60.7921 18.0174 37.8258
240 2 30.216 -19.9033 43.9641
47 2 -15.8767 15.2632 1.82106
46 1 -15.246 16.1338 2.25685
315 2 20.5678 2.23551 2.74663
239 2 28.1216 -20.2205 43.0177
535 1 -10.3943 12.2344 37.7122
270 2 33.4121 17.6181 42.5457
536 2 -9.88436 13.0967 37.1273
508 1 -5.88962 13.2517 0.235775
571 1 23.6842 53.4665 41.7064
593 2 -1.36646 47.7446 42.7075
414 2 31.4296 13.0447 41.9797
441 2 -7.26898 53.3853 40.7727
413 2 29.934 12.5658 43.6873
313 1 20.0631 3.24667 2.48519
131 2 71.8711 -18.1452 -0.219135
268 1 33.4769 16.6961 43.2466
297 2 18.2464 0.286129 41.4351
269 2 33.5418 15.7741 43.9476
15 2 34.1693 3.43509 0.507146
575 2 59.2351 1.49204 16.7542
574 1 59.6789 2.31466 17.4412
464 2 24.249 52.8711 -26.5125
288 2 56.6524 4.13897 15.3919
19 1 29.5874 3.24668 -23.7959
21 2 30.4453 2.61241 -24.2513
138 2 33.2841 40.5643 12.4591
20 2 28.7296 3.88095 -23.3405
136 1 34.3152 40.8199 11.9932
137 2 35.3463 41.0755 11.5273
597 2 22.6632 12.1116 11.8271
595 1 23.0775 12.8032 10.9929
596 2 23.4917 13.4947 10.1588
286 1 55.761 4.05474 16.1293
465 2 25.8088 52.379 -24.8671
463 1 25.0289 52.625 -25.6898
75 2 31.546 13.5722 -24.5744
73 1 31.378 14.7062 -24.3969
287 2 54.8695 3.97051 16.8667
554 2 35.2202 17.0581 49.3174
74 2 31.21 15.8401 -24.2194
570 2 22.6855 -29.6637 -51.8718
568 1 22.3034 -29.0532 -50.9624
569 2 21.9214 -28.4428 -50.053
293 2 17.9711 7.11226 23.2043
292 1 18.9769 7.28685 23.7553
294 2 19.9826 7.46144 24.3064
339 2 23.5318 11.7029 19.1073
76 1 25.2208 46.7003 -46.4559
428 2 -12.3547 15.3712 -11.7085
429 2 -10.6129 14.1316 -12.6096
427 1 -11.4838 14.7514 -12.1591
357 2 18.0485 10.7981 -10.2561
87 2 20.6357 15.1034 23.1729
435 2 -7.27948 17.3941 22.9787
337 1 23.1933 11.2246 20.1084
86 2 19.7941 17.2629 23.276
338 2 22.8548 10.7464 21.1096
85 1 20.2149 16.1832 23.2245
433 1 -7.86024 17.3163 21.9775
434 2 -8.44101 17.2384 20.9764
110 2 22.3621 -24.7391 26.0422
78 2 25.2093 47.3367 -45.4862
351 2 35.4625 4.76754 -9.80115
77 2 25.2322 46.0639 -47.4257
156 2 60.0971 17.743 58.4109
576 2 60.1226 3.13728 18.1282
387 2 20.1334 4.84544 -1.87772
40 1 21.7227 41.7303 -5.28981
41 2 22.7218 41.1837 -5.06964
578 2 26.4823 72.3446 28.6484
485 2 23.6422 11.0461 -0.123464
577 1 25.9114 73.0217 27.8993
42 2 20.7235 42.277 -5.50998
579 2 25.3405 73.6988 27.1501
507 2 20.3633 36.2293 -5.75794
506 2 20.481 38.0368 -7.20756
505 1 20.4222 37.133 -6.48275
300 2 -12.0408 -33.5174 -3.30277
298 1 -11.3475 -32.965 -4.05102
299 2 -10.6543 -32.4126 -4.79927
14 2 32.6695 2.98114 -1.20372
13 1 33.4194 3.20812 -0.348289
109 1 21.8952 -25.1327 27.0284
185 2 56.4766 51.7667 27.9665
112 1 27.5083 11.0958 69.4171
484 1 23.675 10.2762 -0.990514
186 2 54.7137 53.2242 27.5793
248 2 22.0626 12.5628 32.9751
527 2 19.235 8.89429 -6.28502
184 1 55.5952 52.4954 27.7729
111 2 21.4282 -25.5263 28.0146
197 2 24.2839 17.1696 29.7002
501 2 54.5142 16.4456 35.719
247 1 21.1283 13.2458 33.0537