ITEM: TIMESTEP
0
ITEM: NUMBER OF ATOMS
150
ITEM: BOX BOUNDS pp pp pp
0.0000000000000000e+00 3.6000000000000000e+01
0.0000000000000000e+00 3.6000000000000000e+01
0.0000000000000000e+00 3.6000000000000000e+01
ITEM: ATOMS id type xu yu zu
5 2 50.801 0.384161 43.0702
70 1 15.622 78.5225 43.8517
71 2 15.2764 79.2125 42.9857
72 2 15.9675 77.8324 44.7178
49 1 1.59671 -22.9779 42.4888
50 2 0.968104 -23.1294 41.5257
51 2 2.22531 -22.8265 43.4519
96 2 42.7616 17.8712 6.02994
84 2 122.672 -61.5262 78.2988
82 1 123.338 -61.5215 79.2486
83 2 124.004 -61.5168 80.1984
47 2 48.8378 -27.0086 14.0763
46 1 48.5855 -28.1083 14.3459
48 2 48.3333 -29.208 14.6155
114 2 77.8835 72.2813 -9.16999
68 2 -23.9002 1.93385 58.8072
67 1 -24.5106 2.90806 58.6525
69 2 -25.121 3.88227 58.4978
18 2 14.6631 3.79726 -15.8438
62 2 53.582 -68.3032 -84.1255
16 1 14.5852 4.25078 -16.9087
17 2 14.5073 4.7043 -17.9735
36 2 13.0465 17.4767 -16.7939
149 2 -62.9032 -18.6973 93.3138
148 1 -62.46 -18.7608 92.2437
150 2 -62.0167 -18.8243 91.1736
60 2 -32.3784 108.55 -2.66997
75 2 43.9833 -28.3237 34.2899
73 1 43.6386 -29.4312 34.2779
74 2 43.2938 -30.5387 34.266
58 1 -31.9563 109.622 -2.5296
59 2 -31.5342 110.693 -2.38922
128 2 -35.5554 -31.8528 -37.1931
127 1 -35.827 -32.1925 -38.2685
147 2 36.8727 -90.9065 65.7064
145 1 36.4466 -90.7196 64.6439
146 2 36.0204 -90.5327 63.5813
56 2 84.8836 85.7501 -5.19026
55 1 83.9463 85.1139 -4.94092
57 2 83.0089 84.4777 -4.69157
95 2 42.9027 20.1709 5.75846
94 1 42.8321 19.021 5.8942
89 2 108.163 -14.9484 42.7195
88 1 108.067 -15.899 42.0617
52 1 -61.0307 -17.6728 2.28892
53 2 -62.089 -17.5866 2.75608
54 2 -59.9724 -17.7589 1.82175
140 2 -20.4388 -9.75669 40.6961
139 1 -21.1845 -9.11581 41.3116
30 2 6.64278 35.508 8.7788
4 1 50.3677 -0.328974 42.2644
6 2 49.9344 -1.04211 41.4586
7 1 53.9401 -0.475829 74.361
9 2 53.7165 -1.33065 75.1125
141 2 -21.9302 -8.47492 41.9271
115 1 17.0699 -13.9962 12.6438
38 2 49.3019 57.0706 -56.0653
37 1 49.7521 57.6605 -55.1737
99 2 -18.407 -9.47405 46.9386
39 2 50.2022 58.2504 -54.282
19 1 -19.4303 -47.2992 50.9512
21 2 -19.9572 -48.0127 51.6987
117 2 16.8767 -13.7731 11.5219
116 2 17.2631 -14.2193 13.7656
20 2 -18.9033 -46.5856 50.2037
125 2 0.671655 68.1985 85.3243
28 1 7.13133 34.7606 9.51929
29 2 7.61988 34.0132 10.2598
124 1 1.71677 68.0387 84.847
126 2 2.7619 67.8789 84.3698
119 2 7.83328 27.4398 -62.8782
118 1 6.68621 27.5643 -62.7586
120 2 5.53913 27.6888 -62.6389
34 1 12.73 18.5425 -16.4631
35 2 12.4135 19.6083 -16.1323
81 2 40.7125 30.8985 22.0476
80 2 41.399 29.9855 20.0284
79 1 41.0557 30.442 21.038
113 2 78.4115 70.3847 -10.3974
112 1 78.1475 71.333 -9.78369
142 1 45.7616 -43.4402 64.3768
144 2 45.9551 -44.5762 64.5093
143 2 45.5682 -42.3041 64.2443
8 2 54.1638 0.378997 73.6094
136 1 136.699 17.5984 -32.9013
137 2 137.277 16.6163 -33.1193
10 1 25.5321 -32.5837 86.8118
12 2 26.6571 -32.392 87.0196
11 2 24.4071 -32.7754 86.6039
77 2 21.8298 123.244 17.0281
76 1 22.9208 123.481 16.7135
78 2 24.0119 123.718 16.3989
63 2 55.2681 -69.1822 -82.7963
61 1 54.4251 -68.7427 -83.4609
110 2 25.4053 74.494 23.8027
123 2 19.176 109.575 -50.3691
111 2 25.5343 74.4452 26.1186
109 1 25.4698 74.4696 24.9607
121 1 19.8446 110.199 -51.0831
122 2 20.5131 110.822 -51.7972
87 2 -4.96371 41.7163 -46.8005
85 1 -5.82935 41.5342 -47.5509
86 2 -6.69499 41.352 -48.3013
105 2 30.8438 80.361 -45.0057
44 2 20.1165 46.9225 -45.9043
22 1 -42.0852 -54.0037 24.5871
23 2 -42.4477 -54.8735 25.2635
104 2 31.804 79.7903 -42.9723
103 1 31.3239 80.0757 -43.989
129 2 -36.0986 -32.5323 -39.3438
43 1 20.1629 46.3542 -44.8941
45 2 20.2094 45.7859 -43.8839
40 1 32.5708 12.5621 65.3501
42 2 31.4622 12.7954 65.5999
41 2 33.6793 12.3289 65.1004
138 2 136.122 18.5804 -32.6833
90 2 107.971 -16.8496 41.4039
107 2 -0.37296 142.826 -29.0559
108 2 -0.515459 143.874 -31.1208
106 1 -0.444209 143.35 -30.0883
100 1 24.2234 -11.06 13.3955
102 2 24.9484 -11.1035 12.491
101 2 23.4985 -11.0165 14.3
98 2 -16.8624 -9.89109 45.2586
97 1 -17.6347 -9.68257 46.0986
33 2 132.018 -111.52 13.1069
32 2 133.854 -112.938 13.065
31 1 132.936 -112.229 13.0859
26 2 -44.2391 67.708 -19.0252
25 1 -44.4668 66.6175 -18.7019
27 2 -44.6945 65.527 -18.3786
24 2 -41.7227 -53.1339 23.9107
134 2 58.5794 71.7014 -15.1857
133 1 59.7138 71.602 -15.4064
91 1 -11.5148 69.0782 -10.6363
92 2 -11.4171 69.2248 -11.7828
93 2 -11.6125 68.9317 -9.48972
135 2 60.8483 71.5026 -15.6272
130 1 -5.49062 33.8338 127.744
131 2 -5.05091 34.6533 128.437
132 2 -5.93032 33.0144 127.051
65 2 -115.219 -40.6629 70.909
3 2 -39.0526 -3.18785 64.1235
1 1 -39.5368 -3.52847 65.1211
15 2 -5.18014 35.5786 -8.06304
64 1 -115.534 -41.7468 70.6414
66 2 -115.849 -42.8308 70.3738
2 2 -40.021 -3.86908 66.1187
13 1 -6.09465 35.6656 -7.35473
14 2 -7.00915 35.7526 -6.64643
ITEM: TIMESTEP
10000
ITEM: NUMBER OF ATOMS
150
ITEM: BOX BOUNDS pp pp pp
0.0000000000000000e+00 3.6000000000000000e+01
0.0000000000000000e+00 3.6000000000000000e+01
0.0000000000000000e+00 3.6000000000000000e+01
ITEM: ATOMS id type xu yu zu
7 1 80.2844 15.8117 79.3594
9 2 80.6572 14.7928 79.7698
109 1 43.5404 77.8513 38.6503
8 2 79.9116 16.8306 78.949
111 2 43.8023 78.541 37.7551
110 2 43.2785 77.1616 39.5454
69 2 -56.3087 5.92874 48.3286
67 1 -55.7411 6.933 48.4506
81 2 42.9096 8.12873 16.664
68 2 -55.1735 7.93726 48.5726
79 1 42.7576 9.19063 17.1055
80 2 42.6056 10.2525 17.5469
86 2 -33.8975 4.5059 -84.3703
87 2 -32.1094 5.12445 -85.7129
96 2 43.2486 14.1215 -9.28483
95 2 43.8477 12.6315 -10.9592
85 1 -33.0034 4.81517 -85.0416
94 1 43.5481 13.3765 -10.122
146 2 38.1624 -95.9325 103.772
145 1 39.2936 -95.6785 103.808
147 2 40.4249 -95.4244 103.845
32 2 181.879 -107.499 -4.3262
107 2 0.368737 167.982 -34.0204
36 2 -22.2745 33.94 1.21811
34 1 -22.5784 34.9307 0.696831
106 1 0.571289 166.849 -33.8757
108 2 0.77384 165.716 -33.731
150 2 -68.1423 20.7763 110.943
148 1 -68.3248 19.6359 111.052
125 2 3.66449 92.7719 44.7452
5 2 53.7316 -13.2094 36.7703
149 2 -68.5073 18.4955 111.161
20 2 -18.4477 -78.0618 44.7842
35 2 -22.8823 35.9214 0.175554
126 2 2.67083 94.833 45.1283
124 1 3.16766 93.8025 44.9368
89 2 112.454 -39.5063 53.7537
83 2 149.217 -5.49598 58.4324
82 1 149.823 -5.23358 57.4789
84 2 150.43 -4.97118 56.5254
47 2 48.2786 -14.1424 23.6942
46 1 49.4146 -14.2911 23.8754
48 2 50.5507 -14.4399 24.0566
122 2 14.4774 103.956 -45.1256
121 1 14.0418 105.029 -45.0524
90 2 114.529 -38.6651 54.359
88 1 113.491 -39.0857 54.0563
11 2 51.8425 -44.5183 64.2648
13 1 -21.62 32.9262 -5.51968
10 1 52.1705 -44.0152 65.2572
31 1 181.937 -108.575 -4.75497
6 2 52.9066 -14.1509 34.817
33 2 181.994 -109.651 -5.18375
12 2 52.4985 -43.5122 66.2497
103 1 2.39887 97.3685 -40.688
104 2 2.64818 98.4509 -41.0224
105 2 2.14956 96.2861 -40.3537
4 1 53.3191 -13.6802 35.7937
15 2 -20.9701 33.3029 -6.40362
30 2 0.141863 30.3257 -4.75989
14 2 -22.27 32.5496 -4.63573
123 2 13.6063 106.102 -44.9791
3 2 -45.0176 6.74659 73.7612
2 2 -43.503 8.48868 73.9925
77 2 23.4169 124.016 37.7912
1 1 -44.2603 7.61764 73.8768
76 1 22.6113 123.543 37.1034
78 2 21.8058 123.07 36.4155
119 2 -1.00952 10.9471 -61.5527
40 1 58.1922 -29.2344 87.8279
41 2 58.1679 -30.3106 87.3957
98 2 -11.1177 -35.622 10.2592
97 1 -11.383 -35.9253 9.17149
118 1 -0.699096 11.9474 -61.054
120 2 -0.38867 12.9476 -60.5553
42 2 58.2165 -28.1582 88.26
117 2 27.4029 -22.8793 19.0112
135 2 25.6003 42.6871 20.0036
91 1 -38.689 73.3248 -11.4643
134 2 27.2565 42.8994 21.6143
133 1 26.4284 42.7933 20.809
93 2 -39.2523 74.154 -12.0479
92 2 -38.1256 72.4955 -10.8806
115 1 28.2161 -23.6184 18.6396
116 2 29.0293 -24.3574 18.2681
62 2 63.5699 -59.8225 -76.1313
49 1 -1.52999 -27.8669 65.0651
51 2 -2.21916 -27.9473 65.9947
61 1 64.6051 -59.3414 -76.3375
113 2 67.6828 75.5851 -38.6645
63 2 65.6402 -58.8603 -76.5437
112 1 68.657 75.2586 -39.2029
114 2 69.6312 74.932 -39.7414
142 1 57.1805 -64.1067 102.631
143 2 56.399 -64.5619 101.904
50 2 -0.84082 -27.7865 64.1355
144 2 57.962 -63.6516 103.357
43 1 -8.09688 64.24 -33.5547
39 2 23.4771 57.4463 -71.2299
128 2 -43.8085 -36.4578 -64.2313
99 2 -11.6484 -36.2286 8.08376
45 2 -8.57267 63.2817 -33.1064
129 2 -42.3544 -38.2246 -63.8486
18 2 -4.91884 24.6175 3.54359
17 2 -4.32296 25.8036 5.44631
127 1 -43.0814 -37.3412 -64.04
132 2 22.3899 55.7798 113.857
16 1 -4.6209 25.2106 4.49495
44 2 -7.6211 65.1982 -34.003
130 1 21.6901 55.6064 112.948
54 2 -77.0451 -37.8064 -35.5652
131 2 20.9903 55.4331 112.039
19 1 -17.572 -77.7817 45.4915
21 2 -16.6963 -77.5016 46.1988
74 2 67.1929 -40.1517 51.829
137 2 167.62 23.8672 -54.74
75 2 65.9937 -39.4643 53.6923
73 1 66.5933 -39.808 52.7607
136 1 167.244 24.7832 -54.1352
65 2 -154.783 -42.8172 91.9976
72 2 27.1779 65.4682 60.3997
60 2 -16.1964 103.142 -15.1241
101 2 54.8342 -17.3662 -9.62882
138 2 166.869 25.6992 -53.5304
64 1 -154.884 -41.7777 91.4926
70 1 27.789 66.3734 60.0087
71 2 28.4001 67.2786 59.6178
58 1 -17.0777 103.734 -15.5919
66 2 -154.984 -40.7382 90.9877
59 2 -17.959 104.326 -16.0596
141 2 -15.5695 -13.8012 64.7299
28 1 -0.799941 30.2933 -5.43631
56 2 63.1064 105.274 27.7021
22 1 -50.745 -43.9517 33.1997
23 2 -50.0446 -43.0421 33.0329
24 2 -51.4453 -44.8613 33.3664
26 2 -8.87708 92.0947 -41.9621
27 2 -10.3363 93.7879 -42.5836
55 1 62.5022 105.886 28.4803
25 1 -9.60668 92.9413 -42.2729
102 2 56.5408 -16.3866 -8.39977
140 2 -13.5804 -13.6589 63.5444
29 2 -1.74174 30.2608 -6.11274
57 2 61.898 106.498 29.2585
100 1 55.6875 -16.8764 -9.01429
139 1 -14.575 -13.73 64.1372
38 2 22.4356 56.7143 -73.1694
53 2 -77.7875 -39.294 -37.1834
37 1 22.9563 57.0803 -72.1997
52 1 -77.4163 -38.5502 -36.3743
ITEM: TIMESTEP
20000
ITEM: NUMBER OF ATOMS
150
ITEM: BOX BOUNDS pp pp pp
0.0000000000000000e+00 3.6000000000000000e+01
0.0000000000000000e+00 3.6000000000000000e+01
0.0000000000000000e+00 3.6000000000000000e+01
ITEM: ATOMS id type xu yu zu
68 2 -62.2161 2.38054 38.3121
69 2 -63.2395 4.33614 39.0267
67 1 -62.7278 3.35834 38.6694
103 1 2.91861 89.6056 -32.1671
70 1 15.8133 77.7508 77.3722
71 2 15.795 76.5942 77.2858
105 2 2.85612 89.9617 -31.0649
136 1 194.761 14.0477 -63.1052
72 2 15.8316 78.9074 77.4586
104 2 2.98111 89.2495 -33.2694
138 2 193.862 14.6909 -63.4583
62 2 87.9424 -28.9338 -56.1737
61 1 88.2049 -29.9766 -56.6088
63 2 88.4673 -31.0194 -57.0439
96 2 46.7244 8.30981 -23.9333
95 2 44.407 8.41809 -23.9475
94 1 45.5657 8.36395 -23.9404
83 2 148.283 7.34665 49.671
141 2 -54.3059 -18.3807 51.2279
32 2 197.154 -96.3739 -19.0238
82 1 147.44 6.80745 49.0857
84 2 146.596 6.26825 48.5004
31 1 198.043 -95.7598 -18.6016
137 2 195.659 13.4045 -62.7521
13 1 -21.2252 52.3867 -11.4094
14 2 -21.7736 53.4012 -11.5341
17 2 -26.7186 41.1053 21.1522
16 1 -25.9416 41.9504 21.3185
18 2 -25.1645 42.7955 21.4847
116 2 39.2601 -54.3753 -16.778
15 2 -20.6768 51.3721 -11.2847
77 2 0.406756 112.634 22.1219
126 2 14.5551 108.254 31.5393
125 2 13.0267 109.335 30.1688
124 1 13.7909 108.794 30.854
130 1 7.25763 80.1758 136.623
132 2 7.48206 79.0442 136.502
81 2 47.845 14.3582 -0.732941
79 1 47.4349 13.2872 -0.559044
127 1 -24.9317 2.22846 -75.2845
128 2 -24.6029 3.01427 -74.4971
129 2 -25.2605 1.44265 -76.0719
131 2 7.03321 81.3075 136.743
80 2 47.0248 12.2161 -0.385146
37 1 9.12564 65.3936 -100.981
39 2 9.64926 66.254 -100.406
38 2 8.60203 64.5331 -101.557
113 2 72.323 65.6369 -33.1808
1 1 -19.8437 33.7214 86.3064
123 2 17.559 105.79 -18.6718
2 2 -20.5385 32.8742 86.6873
3 2 -19.1488 34.5685 85.9255
117 2 40.291 -53.6966 -14.8136
115 1 39.7755 -54.0359 -15.7958
111 2 73.1752 62.3264 61.0373
48 2 46.0743 -14.7351 26.4395
46 1 45.6777 -15.8245 26.3997
110 2 74.6982 62.7085 62.7451
30 2 -19.6951 24.765 -14.6827
29 2 -18.7109 25.8715 -12.8968
28 1 -19.203 25.3183 -13.7898
109 1 73.9367 62.5174 61.8912
47 2 45.2811 -16.9139 26.3598
25 1 -23.065 140.048 -75.2432
146 2 50.7056 -75.1919 137.677
27 2 -23.9296 140.764 -74.95
147 2 51.6001 -77.3133 137.391
56 2 39.7062 99.2153 65.7136
57 2 37.5548 98.4898 66.1905
55 1 38.6305 98.8525 65.952
26 2 -22.2004 139.333 -75.5363
145 1 51.1528 -76.2526 137.534
135 2 20.6325 52.1787 4.39343
49 1 -17.5732 8.1051 72.1012
64 1 -151.063 -71.8209 79.0946
66 2 -150.681 -71.4339 80.119
133 1 21.445 52.5946 3.67761
134 2 22.2576 53.0105 2.96179
50 2 -17.774 7.23547 72.8422
20 2 -14.2816 -92.3053 46.7863
139 1 -53.5544 -19.2618 51.2963
107 2 -3.26423 191.022 -56.8766
106 1 -3.75182 190.156 -57.4751
108 2 -4.2394 189.29 -58.0735
140 2 -52.803 -20.1428 51.3647
21 2 -13.5974 -94.3964 47.5223
19 1 -13.9395 -93.3509 47.1543
10 1 62.6189 -64.4298 56.2377
11 2 61.8083 -63.9914 56.9421
40 1 59.9732 -65.4007 96.3769
42 2 60.1581 -64.487 97.0671
41 2 59.7882 -66.3145 95.6866
12 2 63.4296 -64.8683 55.5332
91 1 -39.4371 75.2166 -13.6337
93 2 -39.1547 76.0553 -12.8838
92 2 -39.7195 74.3778 -14.3837
119 2 -6.12908 0.172698 -51.8627
120 2 -5.9747 2.25695 -52.8699
118 1 -6.05189 1.21482 -52.3663
75 2 54.4631 -60.9354 62.8107
73 1 54.5731 -60.0696 62.0467
74 2 54.6832 -59.2038 61.2826
59 2 -9.71419 85.4095 -15.8114
60 2 -8.23359 84.1753 -17.1026
58 1 -8.97389 84.7924 -16.457
5 2 66.9758 -54.5103 25.4933
33 2 198.932 -95.1456 -18.1794
78 2 -0.976066 112.581 20.2598
76 1 -0.284655 112.608 21.1909
4 1 67.3459 -54.2311 24.43
98 2 -13.9319 -71.7115 -9.21986
51 2 -17.3724 8.97473 71.3603
97 1 -14.1651 -70.6045 -8.96337
99 2 -14.3982 -69.4975 -8.70688
143 2 67.9207 -68.7031 141.443
142 1 68.828 -68.2104 140.914
144 2 69.7352 -67.7178 140.385
87 2 -41.3185 -8.10834 -105.279
85 1 -41.8819 -8.05707 -104.267
86 2 -42.4452 -8.00581 -103.254
114 2 71.449 64.741 -35.1343
112 1 71.886 65.189 -34.1576
65 2 -151.446 -72.2079 78.0703
148 1 -48.9882 62.2407 122.253
150 2 -49.0108 61.2245 122.812
22 1 -86.6143 -49.4858 11.9565
53 2 -74.5352 -40.9619 -55.7001
23 2 -86.3264 -50.4678 11.4103
24 2 -86.9022 -48.5038 12.5027
149 2 -48.9656 63.2569 121.694
8 2 71.4846 24.2582 85.9117
7 1 71.2388 25.3882 85.8215
54 2 -74.5433 -43.0121 -54.6142
52 1 -74.5392 -41.987 -55.1571
9 2 70.9931 26.5183 85.7313
6 2 67.7161 -53.9519 23.3666
36 2 -36.9598 20.4591 21.55
35 2 -37.2075 19.0609 19.7153
122 2 18.6963 106.153 -16.6824
34 1 -37.0836 19.76 20.6327
121 1 18.1277 105.971 -17.6771
89 2 98.5566 -41.3619 32.1431
100 1 70.9147 -7.11844 -5.14929
101 2 71.2914 -7.30121 -4.06751
88 1 99.1717 -41.9002 32.9662
90 2 99.7868 -42.4385 33.7893
45 2 33.2572 29.7143 35.2893
44 2 32.7371 27.5196 35.8324
43 1 32.9971 28.617 35.5608
102 2 70.5379 -6.93566 -6.23107
ITEM: TIMESTEP
30000
ITEM: NUMBER OF ATOMS
150
ITEM: BOX BOUNDS pp pp pp
0.0000000000000000e+00 3.6000000000000000e+01
0.0000000000000000e+00 3.6000000000000000e+01
0.0000000000000000e+00 3.6000000000000000e+01
ITEM: ATOMS id type xu yu zu
34 1 -34.6655 6.19259 41.7336
36 2 -35.3402 5.7169 40.9187
35 2 -33.9909 6.66829 42.5486
14 2 -28.3021 51.4189 2.27398
13 1 -29.2872 52.0029 2.08899
15 2 -30.2722 52.587 1.90399
2 2 8.18917 72.5522 108.462
73 1 36.391 -71.2851 49.0594
120 2 7.64682 1.83211 -58.1476
74 2 37.3701 -71.7524 48.6488
101 2 85.1901 16.6147 15.4129
119 2 8.94217 2.19588 -60.0377
102 2 86.9272 17.5913 16.6008
12 2 81.6831 -63.6174 49.3934
10 1 81.305 -64.4076 50.1539
11 2 80.9269 -65.1977 50.9144
83 2 157.114 -56.6048 47.1995
100 1 86.0587 17.103 16.0069
84 2 155.963 -57.3134 45.3136
82 1 156.539 -56.9591 46.2565
118 1 8.29449 2.014 -59.0927
112 1 74.6089 49.764 -1.43601
113 2 74.9049 48.811 -0.844504
17 2 -32.4421 52.8725 28.0962
114 2 74.3129 50.7169 -2.02752
18 2 -31.4345 54.0146 29.8463
88 1 114.046 -21.8246 34.7431
90 2 114.702 -21.2852 35.5329
89 2 113.389 -22.3641 33.9532
16 1 -31.9383 53.4436 28.9713
6 2 111.052 -70.3822 30.018
4 1 111.234 -70.6357 31.1352
9 2 47.837 47.4259 69.3631
5 2 111.417 -70.8891 32.2524
8 2 46.3794 49.2289 69.4468
7 1 47.1082 48.3274 69.405
80 2 75.471 5.45347 -6.77106
3 2 9.43154 72.6452 106.504
79 1 75.4225 4.92074 -7.80035
1 1 8.81035 72.5987 107.483
81 2 75.3741 4.388 -8.82965
71 2 3.97549 100.21 79.7346
72 2 3.50456 101.431 77.8186
70 1 3.74003 100.82 78.7766
122 2 5.16055 98.9477 3.869
123 2 7.18567 99.7249 3.04605
121 1 6.17311 99.3363 3.45753
42 2 73.459 -47.3635 110.675
40 1 73.33 -46.8991 109.619
41 2 73.201 -46.4347 108.564
61 1 124.06 -41.9665 -61.8408
143 2 51.1006 -78.5325 159.976
77 2 8.95201 104.547 -22.0331
76 1 8.82159 104.207 -20.9319
62 2 124.403 -43.0675 -61.7158
63 2 123.717 -40.8654 -61.9657
142 1 51.4692 -78.9027 161.012
78 2 8.69117 103.866 -19.8307
144 2 51.8378 -79.2729 162.048
49 1 -25.9297 25.6951 92.1233
128 2 -34.1489 33.3358 -83.7804
129 2 -33.3706 32.7268 -81.6815
50 2 -25.2417 25.3944 91.239
51 2 -26.6177 25.9957 93.0075
27 2 -18.327 142.181 -86.8191
127 1 -33.7598 33.0313 -82.731
97 1 -34.3913 -85.8013 -43.2091
47 2 6.95541 -2.22521 29.6155
43 1 37.8369 31.7941 34.0543
45 2 38.1803 30.8332 33.5026
95 2 45.228 -13.2535 -42.9802
131 2 -20.9581 101.17 143.745
132 2 -22.84 102.521 143.619
98 2 -35.1513 -84.957 -43.444
94 1 44.7896 -14.1314 -43.5988
96 2 44.3513 -15.0093 -44.2174
46 1 7.83309 -1.95764 28.9058
99 2 -33.6313 -86.6456 -42.9743
48 2 8.71078 -1.69006 28.1961
44 2 37.4936 32.7551 34.6059
130 1 -21.8991 101.845 143.682
110 2 70.8635 49.0595 80.9401
109 1 70.9246 48.2742 81.7916
117 2 35.2774 -65.7888 -21.4319
111 2 70.9858 47.4889 82.6432
20 2 -10.3553 -102.57 88.8082
19 1 -9.21272 -102.762 88.8635
21 2 -8.07013 -102.955 88.9187
115 1 35.2589 -64.9367 -20.645
66 2 -121.114 -71.3302 88.0098
116 2 35.2404 -64.0847 -19.858
75 2 35.4119 -70.8178 49.47
145 1 58.2012 -93.6933 130.229
37 1 -16.6725 74.4144 -87.9667
147 2 58.2221 -92.6497 130.735
146 2 58.1803 -94.7369 129.723
38 2 -16.7649 75.4288 -87.4117
39 2 -16.58 73.3999 -88.5217
24 2 -87.6841 -35.971 -3.40758
22 1 -87.6507 -34.9267 -3.91138
31 1 211.057 -91.4882 -79.5529
33 2 209.979 -91.3573 -79.1447
23 2 -87.6174 -33.8823 -4.41519
32 2 212.135 -91.6192 -79.961
29 2 -10.7761 37.8369 -5.33697
28 1 -10.3958 36.8498 -5.81294
52 1 -81.0717 -42.7721 -69.9388
136 1 245.142 -11.3262 -63.4113
54 2 -80.8292 -42.5322 -68.8301
53 2 -81.3142 -43.0121 -71.0475
137 2 246.122 -11.7803 -63.8347
92 2 -45.4902 63.3649 -24.1757
64 1 -121.29 -72.2792 88.6535
65 2 -121.465 -73.2281 89.2972
56 2 23.2592 69.0528 82.7139
57 2 22.5097 67.4994 81.1622
55 1 22.8844 68.2761 81.938
91 1 -46.1016 64.3449 -24.2823
104 2 -7.99399 104.462 -26.7131
103 1 -7.26624 104.962 -25.9608
105 2 -6.53849 105.462 -25.2086
149 2 -36.1455 69.1993 122.232
67 1 -78.6473 -7.38896 45.5494
68 2 -78.6706 -6.23635 45.678
93 2 -46.7131 65.3249 -24.3888
150 2 -37.6216 69.3967 120.453
148 1 -36.8836 69.298 121.342
138 2 244.162 -10.8721 -62.9878
134 2 28.466 60.2479 -18.0846
69 2 -78.624 -8.54158 45.4208
141 2 -74.9474 -48.449 24.4746
133 1 28.2556 59.904 -16.997
135 2 28.0452 59.5601 -15.9093
124 1 20.1512 138.586 19.8485
125 2 20.5604 138.067 18.8949
126 2 19.742 139.104 20.8021
140 2 -75.6436 -46.4469 23.5315
139 1 -75.2955 -47.448 24.003
25 1 -17.5222 142.008 -87.6363
26 2 -16.7174 141.835 -88.4536
59 2 -38.1503 92.3442 -45.4571
107 2 -10.9394 204.001 -38.852
106 1 -9.92668 203.613 -39.2636
108 2 -8.914 203.225 -39.6753
87 2 -77.1008 -12.016 -76.8277
85 1 -77.2762 -13.0621 -77.2974
86 2 -77.4515 -14.1081 -77.7671
30 2 -10.0156 35.8626 -6.28892
60 2 -39.5593 91.4796 -43.8294
58 1 -38.8548 91.9119 -44.6433
ITEM: TIMESTEP
40000
ITEM: NUMBER OF ATOMS
150
ITEM: BOX BOUNDS pp pp pp
0.0000000000000000e+00 3.6000000000000000e+01
0.0000000000000000e+00 3.6000000000000000e+01
0.0000000000000000e+00 3.6000000000000000e+01
ITEM: ATOMS id type xu yu zu
62 2 124.734 -90.9639 -64.4696
142 1 73.1708 -91.3753 144.2
131 2 -34.6157 124.506 152.011
79 1 114.173 3.24253 1.14448
61 1 125.692 -90.3443 -64.259
143 2 73.7646 -91.5812 145.175
146 2 51.3458 -97.9571 180.405
130 1 -35.4273 125.152 151.492
81 2 114.314 3.65561 0.0697779
80 2 114.031 2.82945 2.21918
147 2 49.9198 -97.0649 182.003
145 1 50.6328 -97.511 181.204
150 2 -29.1501 88.6164 121.828
107 2 -22.2653 195.69 -22.5066
23 2 -60.1974 -35.2879 10.1497
58 1 -60.2249 120.528 -58.9375
106 1 -22.4551 195.122 -23.5002
60 2 -59.8627 119.48 -59.2789
59 2 -60.587 121.576 -58.596
149 2 -28.136 88.1253 119.8
108 2 -22.6449 194.554 -24.4938
148 1 -28.643 88.3708 120.814
126 2 8.16254 109.233 47.1976
124 1 7.9325 108.334 47.8937
45 2 4.58349 38.6804 23.3271
101 2 76.0219 2.82134 20.1298
100 1 75.0268 3.25647 19.7222
102 2 74.0317 3.69161 19.3146
43 1 5.70026 38.42 23.1521
44 2 6.81704 38.1597 22.9771
94 1 52.8816 -26.996 -51.2905
95 2 51.8941 -27.5936 -51.4054
71 2 1.51592 113.77 62.3299
96 2 53.8692 -26.3983 -51.1756
10 1 81.5964 -70.036 33.5153
11 2 82.1507 -69.9582 32.4993
12 2 81.0421 -70.1138 34.5313
70 1 1.21955 113.347 63.3688
72 2 0.923179 112.925 64.4077
39 2 -19.5532 74.2944 -39.001
38 2 -21.121 73.414 -40.4671
37 1 -20.3371 73.8542 -39.7341
144 2 72.577 -91.1693 143.225
20 2 -27.4009 -109.719 111.997
92 2 -59.1662 67.5687 -27.0058
121 1 -22.4961 98.7818 1.07171
52 1 -91.378 -49.9554 -68.924
123 2 -23.3746 98.9966 1.79815
122 2 -21.6176 98.567 0.34527
21 2 -29.4863 -109.215 111.114
54 2 -91.3899 -49.6437 -67.8068
19 1 -28.4436 -109.467 111.556
53 2 -91.3661 -50.2672 -70.0413
78 2 17.344 91.2058 -35.5711
135 2 45.5476 58.4191 -21.9338
134 2 43.764 59.0841 -20.6075
41 2 79.8775 -50.7331 119.039
40 1 80.7219 -50.4663 118.29
42 2 81.5663 -50.1995 117.541
133 1 44.6558 58.7516 -21.2706
125 2 7.70247 107.435 48.5897
91 1 -59.617 66.927 -26.151
24 2 -60.304 -37.5647 9.71726
27 2 8.68218 139.212 -94.5575
25 1 9.03169 138.301 -95.1845
93 2 -60.0678 66.2854 -25.2962
26 2 9.38119 137.389 -95.8115
22 1 -60.2507 -36.4263 9.93349
137 2 253.89 -7.24237 -87.8563
136 1 254.037 -6.89883 -86.7581
1 1 13.9103 94.7343 130.828
2 2 14.2917 94.7231 131.924
3 2 13.5289 94.7456 129.733
138 2 254.184 -6.55529 -85.66
118 1 12.8617 32.5985 -79.8583
120 2 13.8984 32.0885 -79.9628
119 2 11.8251 33.1084 -79.7537
76 1 17.8402 92.0584 -36.1813
32 2 214.736 -105.352 -100.614
33 2 214.114 -105.224 -102.846
31 1 214.425 -105.288 -101.73
82 1 140.466 -33.9502 36.2973
84 2 140.375 -33.8542 37.4496
111 2 63.5735 36.359 80.7667
17 2 -43.7685 73.1391 41.3904
35 2 -15.6822 0.435102 37.1204
34 1 -14.7237 0.769235 37.6819
16 1 -42.8588 73.2149 40.6746
18 2 -41.9491 73.2908 39.9588
132 2 -36.2389 125.799 150.974
36 2 -13.7653 1.10337 38.2434
15 2 -12.0885 41.9114 -22.5576
14 2 -13.0095 40.2516 -21.2236
13 1 -12.549 41.0815 -21.8906
47 2 -8.2446 2.51245 48.4699
46 1 -8.86737 1.55907 48.6909
48 2 -9.49013 0.605688 48.9119
89 2 104.938 -22.335 10.8697
110 2 64.3552 38.395 81.5579
109 1 63.9643 37.377 81.1623
90 2 107.177 -22.1091 11.4306
88 1 106.057 -22.2221 11.1501
115 1 27.8622 -128.2 -9.60536
116 2 28.2316 -129.254 -9.29144
117 2 27.4928 -127.146 -9.91929
140 2 -81.8613 -66.8039 26.7644
139 1 -82.5311 -66.4892 27.6578
57 2 20.7344 74.0645 104.449
83 2 140.558 -34.0463 35.1449
56 2 21.2808 74.3735 102.215
55 1 21.0076 74.219 103.332
8 2 32.6609 79.853 64.8648
9 2 33.1445 77.6826 64.2032
7 1 32.9027 78.7678 64.534
99 2 -76.2005 -69.1978 -78.2455
97 1 -75.8924 -69.3775 -77.1417
98 2 -75.5842 -69.5572 -76.0379
141 2 -83.2008 -66.1746 28.5511
64 1 -88.3549 -83.9368 77.379
66 2 -88.1263 -83.5422 78.4456
114 2 70.2476 55.9412 4.89154
65 2 -88.5835 -84.3313 76.3124
29 2 -3.76774 58.5802 7.85448
28 1 -4.36407 58.6636 6.86301
63 2 126.649 -89.7247 -64.0483
113 2 71.5874 54.1743 4.20939
30 2 -4.96041 58.7471 5.87154
112 1 70.9175 55.0578 4.55047
127 1 -8.16618 64.8259 -97.569
129 2 -7.34832 64.5024 -96.8126
128 2 -8.98404 65.1494 -98.3253
6 2 163.178 -50.0064 47.163
86 2 -83.228 -9.02486 -54.8853
85 1 -82.2989 -9.45645 -54.3411
4 1 163.125 -50.8823 47.9216
5 2 163.072 -51.7582 48.6803
51 2 -14.3644 18.7657 94.4965
49 1 -14.5437 18.5008 93.3814
50 2 -14.723 18.2359 92.2664
74 2 23.2355 -75.2854 26.3444
87 2 -81.3698 -9.88803 -53.7968
75 2 23.4005 -75.6497 28.6297
77 2 18.3364 92.911 -36.7915
73 1 23.318 -75.4675 27.487
104 2 -13.2231 93.3444 -41.9132
103 1 -12.5679 92.5093 -41.4453
105 2 -11.9127 91.6742 -40.9774
67 1 -84.33 -4.89609 31.7485
69 2 -84.4419 -6.03036 31.5329
68 2 -84.218 -3.76181 31.9641
ITEM: TIMESTEP
50000
ITEM: NUMBER OF ATOMS
150
ITEM: BOX BOUNDS pp pp pp
0.0000000000000000e+00 3.6000000000000000e+01
0.0000000000000000e+00 3.6000000000000000e+01
0.0000000000000000e+00 3.6000000000000000e+01
ITEM: ATOMS id type xu yu zu
139 1 -92.5903 -69.3945 5.36088
140 2 -93.5365 -69.614 5.99499
141 2 -91.6441 -69.175 4.72676
57 2 13.6846 81.7943 146.243
55 1 13.1483 81.6477 145.225
44 2 1.59015 48.8065 1.23019
43 1 1.65045 47.8101 1.82099
45 2 1.71076 46.8136 2.41179
56 2 12.612 81.5011 144.207
10 1 76.1132 -93.9539 -0.249592
67 1 -90.868 6.21966 7.77916
12 2 75.5806 -93.0298 0.206368
69 2 -91.1006 7.30659 7.44736
68 2 -90.6354 5.13274 8.11095
2 2 17.3133 74.3784 117.326
1 1 17.7723 74.9456 118.228
75 2 16.7465 -59.1471 17.2902
73 1 17.7042 -58.6607 17.7283
104 2 -21.449 45.404 -48.6468
105 2 -21.5955 44.0381 -50.5164
103 1 -21.5223 44.721 -49.5816
89 2 117.157 0.59839 -1.9464
11 2 76.6457 -94.8781 -0.705553
93 2 -91.8655 3.1619 -7.65127
91 1 -90.8415 3.11427 -8.19418
90 2 118.916 1.87244 -2.76198
88 1 118.036 1.23542 -2.35419
29 2 43.8406 55.9167 1.08903
28 1 43.1721 56.8103 1.40564
146 2 13.2563 -108.607 219.866
128 2 4.84764 64.2907 -99.6282
127 1 4.85387 65.4333 -99.4281
30 2 42.5036 57.7039 1.72224
5 2 148.774 -49.4211 7.89021
147 2 14.5749 -110.252 218.899
4 1 147.946 -49.0529 7.16583
6 2 147.118 -48.6846 6.44146
145 1 13.9156 -109.429 219.382
81 2 79.1291 19.175 42.6636
79 1 79.937 18.7393 43.3729
80 2 80.7449 18.3035 44.0821
129 2 4.86009 66.5759 -99.228
131 2 -30.017 136.466 157.665
60 2 -70.6167 139.248 -60.9338
7 1 40.8868 96.9504 89.5426
132 2 -31.7846 136.92 156.232
9 2 41.0936 97.7971 88.7772
58 1 -70.3461 138.238 -61.4361
130 1 -30.9008 136.693 156.949
59 2 -70.0756 137.228 -61.9385
109 1 48.6099 23.5941 84.5891
111 2 48.3203 24.2993 83.7148
110 2 48.8994 22.8888 85.4634
8 2 40.6801 96.1036 90.308
137 2 254.132 22.834 -87.9594
138 2 256.148 21.6956 -88.1104
42 2 78.9504 -45.2357 132.425
143 2 90.1997 -81.4292 130.138
40 1 78.4621 -45.5741 133.421
41 2 77.9739 -45.9125 134.417
142 1 89.2263 -81.5405 130.759
144 2 88.253 -81.6517 131.38
136 1 255.14 22.2648 -88.0349
71 2 -18.0953 101.217 62.1308
118 1 2.03147 63.3985 -72.2737
120 2 1.02593 62.8869 -72.5435
119 2 3.037 63.91 -72.0038
112 1 85.642 58.1236 -8.50768
114 2 84.6925 58.7625 -8.31826
94 1 51.1076 -50.9831 -77.1246
113 2 86.5915 57.4847 -8.6971
96 2 50.3936 -50.0869 -77.3052
95 2 51.8217 -51.8792 -76.944
52 1 -94.4469 -42.946 -43.9048
54 2 -93.9068 -43.8002 -43.3354
99 2 -55.0014 -111.71 -78.6719
98 2 -54.5361 -113.866 -77.9511
97 1 -54.7687 -112.788 -78.3115
53 2 -94.9869 -42.0917 -44.4742
134 2 60.0232 52.5823 -28.8575
133 1 61.0769 52.1022 -28.7875
135 2 62.1305 51.6221 -28.7175
84 2 125.96 13.988 6.60493
85 1 -80.0402 -26.5097 -32.8322
86 2 -80.0505 -25.4451 -32.3717
87 2 -80.0299 -27.5743 -33.2927
82 1 126.948 14.3203 7.11424
83 2 127.936 14.6526 7.62355
3 2 18.2314 75.5128 119.13
39 2 -43.8647 74.7737 -18.708
14 2 -11.7638 52.0509 -24.6848
49 1 -2.07786 46.9017 85.4152
50 2 -1.30871 46.6714 86.2524
17 2 -37.814 73.0274 16.2072
51 2 -2.84701 47.132 84.578
15 2 -9.50745 51.6034 -24.9864
13 1 -10.6356 51.8271 -24.8356
16 1 -36.8892 72.3274 16.1862
74 2 18.6618 -58.1742 18.1663
38 2 -42.5517 74.0645 -16.9316
33 2 236.884 -92.3259 -119.132
149 2 -37.9723 89.5437 94.9922
32 2 234.597 -91.964 -119.276
150 2 -39.5954 90.0054 96.5843
148 1 -38.7838 89.7746 95.7882
117 2 -0.870129 -171.396 26.6741
115 1 -0.819673 -172.555 26.6806
31 1 235.74 -92.1449 -119.204
116 2 -0.769216 -173.714 26.6871
92 2 -89.8175 3.06664 -8.73709
37 1 -43.2082 74.4191 -17.8198
126 2 27.1882 115.963 70.8443
124 1 27.7286 115.193 71.5228
125 2 28.269 114.423 72.2013
63 2 137.216 -92.9408 -37.2516
61 1 136.876 -92.3633 -38.1985
62 2 136.536 -91.7857 -39.1454
76 1 19.8643 101.238 -33.0041
24 2 -44.9657 -11.5413 43.6914
78 2 19.5008 102.312 -32.76
22 1 -44.1629 -12.3517 43.9017
23 2 -43.3601 -13.1621 44.112
66 2 -84.5733 -86.6545 76.964
64 1 -84.7471 -87.7588 77.2734
65 2 -84.921 -88.8632 77.5828
77 2 20.2278 100.164 -33.2482
20 2 -50.2198 -115.636 116.457
122 2 -47.4765 92.0227 -27.4528
18 2 -35.9644 71.6275 16.1652
123 2 -47.4375 91.1791 -25.292
121 1 -47.457 91.6009 -26.3724
27 2 18.7878 127.651 -98.485
21 2 -48.4939 -114.609 117.619
19 1 -49.3569 -115.123 117.038
26 2 19.9584 127.947 -96.5039
25 1 19.3731 127.799 -97.4944
101 2 69.872 -8.01037 -16.6217
70 1 -17.1424 101.656 62.6261
72 2 -16.1895 102.094 63.1214
102 2 69.796 -9.86916 -18.0079
100 1 69.834 -8.93977 -17.3148
107 2 -3.48093 200.263 -0.957633
106 1 -2.48847 200.836 -1.13611
108 2 -1.49601 201.409 -1.31459
46 1 22.9437 -8.69291 68.3842
47 2 21.982 -8.34028 67.8397
48 2 23.9053 -9.04554 68.9287
36 2 21.2558 19.0497 34.1084
35 2 23.0681 19.9726 35.2247
34 1 22.162 19.5111 34.6665
ITEM: TIMESTEP
60000
ITEM: NUMBER OF ATOMS
150
ITEM: BOX BOUNDS pp pp pp
0.0000000000000000e+00 3.6000000000000000e+01
0.0000000000000000e+00 3.6000000000000000e+01
0.0000000000000000e+00 3.6000000000000000e+01
ITEM: ATOMS id type xu yu zu
49 1 8.5107 74.1937 72.7467
11 2 78.8339 -103.184 -31.6029
50 2 9.21354 74.2498 73.6678
12 2 78.9512 -105.459 -32.0435
10 1 78.8926 -104.321 -31.8232
129 2 13.4389 40.2548 -98.4888
128 2 14.3151 40.4709 -96.3516
127 1 13.877 40.3628 -97.4202
9 2 45.635 125.238 82.879
8 2 44.4362 125.093 84.8599
7 1 45.0356 125.166 83.8695
38 2 -29.9267 73.3611 -9.89153
37 1 -29.2476 73.0281 -10.7711
39 2 -28.5686 72.6951 -11.6506
124 1 48.4006 115.199 62.7341
94 1 78.9191 -54.4884 -118.111
96 2 78.0772 -55.2339 -118.396
126 2 47.4705 114.987 62.0741
57 2 2.71055 85.3249 138.822
103 1 -30.4666 16.1154 -39.1563
104 2 -30.2145 14.9897 -39.2785
90 2 158.979 47.7088 -1.60421
105 2 -30.7187 17.241 -39.034
125 2 49.3307 115.411 63.3942
79 1 74.0105 -27.118 31.2582
80 2 73.0776 -26.6696 30.7345
56 2 0.532943 84.9513 138.114
55 1 1.62175 85.1381 138.468
81 2 74.9434 -27.5663 31.7819
89 2 159.309 49.9715 -1.99688
88 1 159.144 48.8401 -1.80055
51 2 7.80785 74.1376 71.8255
25 1 8.81537 130.81 -101.933
41 2 83.4628 -43.4274 150.288
27 2 9.62105 130.768 -101.1
40 1 84.1507 -42.5258 150.044
26 2 8.00969 130.851 -102.767