ITEM: TIMESTEP
0
ITEM: NUMBER OF ATOMS
300
ITEM: BOX BOUNDS pp pp pp
0.0000000000000000e+00 3.6000000000000000e+01
0.0000000000000000e+00 3.6000000000000000e+01
0.0000000000000000e+00 3.6000000000000000e+01
ITEM: ATOMS id type xu yu zu
87 2 80.2122 36.5159 1.2029
32 2 -54.3519 -33.3972 5.31748
33 2 -54.6821 -31.7657 6.93354
31 1 -54.517 -32.5814 6.12551
176 2 37.2985 16.8856 -34.7883
226 1 4.2933 15.1143 8.53858
177 2 39.3402 17.033 -33.6963
175 1 38.3194 16.9593 -34.2423
15 2 37.5664 53.0339 8.7347
228 2 4.03226 14.2139 7.85529
196 1 -24.7213 17.5869 3.24633
197 2 -24.8937 16.4511 3.4066
207 2 6.82518 -30.8106 11.5692
205 1 7.87456 -31.3006 11.6343
206 2 8.92393 -31.7907 11.6994
174 2 39.2166 6.69425 9.48214
172 1 39.35 5.67537 10.0204
173 2 39.4834 4.65648 10.5586
222 2 74.6241 8.30088 53.0947
132 2 9.13437 1.26997 16.4807
130 1 9.52878 0.434317 17.1819
251 2 -19.3696 5.76712 11.3515
250 1 -19.9385 6.10018 12.306
252 2 -20.5074 6.43324 13.2604
221 2 73.0625 9.9105 52.5006
220 1 73.8433 9.10569 52.7976
129 2 3.37824 -21.4711 -21.7524
127 1 2.54608 -21.0106 -22.4165
13 1 37.7733 53.8395 9.54333
121 1 79.2763 51.4914 -20.08
128 2 1.71393 -20.5501 -23.0807
123 2 78.1195 51.4179 -20.1247
122 2 80.4331 51.565 -20.0353
227 2 4.55434 16.0146 9.22187
5 2 16.3591 53.0147 -18.1628
263 2 40.6493 4.85401 58.6818
262 1 39.5804 5.29621 58.7684
264 2 38.5115 5.73841 58.855
21 2 -30.1308 36.1016 -13.8728
38 2 -18.7258 41.7472 -10.305
278 2 51.1923 36.5498 -14.3822
276 2 0.61213 17.5886 24.0288
91 1 38.1361 -24.4653 21.5557
93 2 37.4825 -25.2466 21.0008
1 1 40.5356 50.4411 -12.8836
92 2 38.7897 -23.684 22.1106
2 2 40.159 50.1194 -11.8347
3 2 40.9122 50.7628 -13.9325
274 1 1.73123 17.3157 23.8918
275 2 2.85032 17.0429 23.7548
167 2 -21.8381 -22.9015 61.3033
4 1 17.3206 52.4909 -17.7796
267 2 -18.4938 16.4161 22.485
168 2 -20.2164 -21.9262 59.9613
265 1 -18.2356 16.66 23.5893
166 1 -21.0273 -22.4139 60.6323
68 2 48.2946 -26.2715 26.7395
47 2 2.7386 6.57754 29.3069
46 1 1.75673 6.5153 28.6924
48 2 0.774857 6.45305 28.0779
282 2 14.0344 5.48182 -8.53087
280 1 14.6363 6.25393 -7.90868
281 2 15.2382 7.02604 -7.28649
78 2 13.4023 37.9955 -5.00053
76 1 12.8552 38.9289 -5.41881
77 2 12.3082 39.8624 -5.8371
261 2 38.7895 14.5069 35.7069
259 1 39.1812 13.8097 34.8666
260 2 39.5729 13.1124 34.0264
149 2 -24.8258 -20.2194 33.4173
52 1 16.1998 45.8936 -7.9924
53 2 16.5229 46.5232 -7.07322
150 2 -26.8604 -19.7374 32.412
67 1 48.512 -25.3627 27.4268
148 1 -25.8431 -19.9784 32.9147
69 2 48.7294 -24.4539 28.1141
90 2 52.9639 51.22 -4.8719
54 2 15.8768 45.2641 -8.91157
88 1 53.9567 51.5921 -4.40115
288 2 3.0144 -16.2237 7.84332
286 1 3.96373 -15.6291 8.14476
287 2 4.91305 -15.0345 8.44621
134 2 8.40997 -16.4397 5.80178
135 2 10.4271 -15.3269 6.07653
198 2 -24.549 18.7228 3.08607
161 2 12.6282 19.501 44.1454
239 2 14.2656 57.527 42.8314
238 1 14.938 56.8741 43.5149
240 2 15.6105 56.2212 44.1984
133 1 9.41852 -15.8833 5.93915
272 2 8.45929 -1.09068 43.5083
85 1 79.7341 35.737 1.91736
86 2 79.256 34.9582 2.63182
273 2 9.56273 -0.571353 41.5347
271 1 9.01101 -0.831014 42.5215
29 2 1.03493 23.4129 51.4578
110 2 5.59544 18.1712 -59.9172
109 1 5.94523 18.3102 -58.8199
111 2 6.29502 18.4492 -57.7227
28 1 0.394839 23.8217 50.581
14 2 37.9801 54.645 10.352
16 1 51.8859 98.6677 14.8352
17 2 52.2359 97.5655 14.9254
162 2 11.3793 20.3614 45.901
82 1 10.6882 23.5773 48.3007
83 2 10.7007 24.7306 48.1768
84 2 10.6757 22.424 48.4247
55 1 14.3051 -14.7192 12.8191
56 2 13.6082 -14.6249 13.7416
57 2 15.0019 -14.8135 11.8965
160 1 12.0037 19.9312 45.0232
209 2 8.91313 -1.56838 14.8204
188 2 5.84894 34.8126 48.6086
187 1 6.84108 34.3418 48.2349
189 2 7.83321 33.8709 47.8613
300 2 11.1115 -8.45908 14.1837
131 2 9.92318 -0.401341 17.8832
208 1 9.73306 -2.27877 14.4097
299 2 12.3778 -8.09714 12.2737
236 2 51.7621 63.7628 17.8381
210 2 10.553 -2.98916 13.999
18 2 51.5358 99.77 14.745
298 1 11.7447 -8.27811 13.2287
156 2 42.3305 25.0738 -17.7654
154 1 42.5402 25.8283 -16.9097
155 2 42.75 26.5829 -16.054
94 1 1.26864 20.3406 19.2161
95 2 1.92694 20.8737 20.0086
96 2 0.610333 19.8076 18.4236
243 2 -20.7481 -13.5352 57.334
169 1 10.1753 25.6484 21.8729
170 2 9.19058 25.474 21.2852
171 2 11.1601 25.8227 22.4607
242 2 -23.0105 -13.2116 57.7332
241 1 -21.8793 -13.3734 57.5336
19 1 -29.6194 35.1156 -14.2073
20 2 -29.108 34.1297 -14.5418
237 2 50.9284 65.7703 18.6488
279 2 49.7561 34.8038 -14.9031
277 1 50.4742 35.6768 -14.6426
235 1 51.3452 64.7665 18.2434
63 2 48.2031 57.2572 29.7941
61 1 48.7973 58.2334 29.5951
62 2 49.3914 59.2096 29.396
192 2 5.61673 29.8848 -1.54184
190 1 5.18606 28.9892 -0.943501
191 2 4.75539 28.0936 -0.345159
107 2 51.4549 71.217 -2.85615
245 2 13.534 -7.74176 63.2596
246 2 15.7957 -7.25652 63.4384
244 1 14.6648 -7.49914 63.349
106 1 52.307 71.4558 -3.60619
108 2 53.159 71.6946 -4.35623
80 2 32.5063 41.9492 -30.747
142 1 64.2876 41.9918 -29.8277
144 2 63.5236 42.1298 -28.9659
143 2 65.0517 41.8537 -30.6896
81 2 31.6976 39.805 -30.3855
79 1 32.102 40.8771 -30.5663
200 2 -49.5973 13.0829 1.98732
204 2 -12.5045 15.1726 4.93262
180 2 -13.4926 12.347 8.51591
202 1 -12.2859 16.2775 5.21007
203 2 -12.0672 17.3824 5.48751
201 2 -50.6069 15.1362 2.37076
258 2 20.3602 -21.644 114.076
256 1 19.4821 -21.0421 113.615
257 2 18.604 -20.4402 113.155
199 1 -50.1021 14.1096 2.17904
195 2 34.264 14.7345 41.3893
193 1 33.7996 14.5042 42.427
194 2 33.3351 14.2739 43.4647
296 2 -15.064 41.1142 -55.7253
295 1 -15.7243 41.1285 -56.6789
297 2 -16.3847 41.1429 -57.6325
105 2 -14.9656 -28.7909 -24.4943
103 1 -14.6152 -27.7382 -24.8329
163 1 -10.4706 1.42068 10.8805
165 2 -9.54274 1.16358 10.2336
164 2 -11.3985 1.67779 11.5274
254 2 34.4903 43.8003 53.3782
253 1 34.2848 44.4303 52.4262
104 2 -14.2648 -26.6855 -25.1714
58 1 90.4012 17.6412 -21.2635
216 2 60.8788 47.4071 47.3445
214 1 59.9083 47.5173 47.9702
215 2 58.9377 47.6275 48.5959
59 2 90.169 16.7476 -20.5612
179 2 -14.6509 13.212 10.3304
178 1 -14.0717 12.7795 9.42316
255 2 34.0793 45.0604 51.4741
9 2 30.5108 14.2542 10.6694
8 2 29.7915 12.2106 9.83944
7 1 30.1511 13.2324 10.2544
225 2 23.0613 3.92026 62.9314
223 1 22.3642 4.43066 62.1574
224 2 21.6671 4.94105 61.3833
37 1 -17.8174 41.3864 -9.68026
39 2 -16.909 41.0256 -9.05556
141 2 18.9423 36.306 26.0804
283 1 35.3861 42.4778 21.2321
285 2 35.306 42.1845 20.1126
218 2 -2.3531 2.62595 20.0246
219 2 -0.91127 0.867369 19.5654
217 1 -1.63219 1.74666 19.795
284 2 35.4661 42.7711 22.3515
100 1 19.6524 -61.229 57.3411
6 2 18.2821 51.9672 -17.3963
74 2 -50.401 50.4775 18.4055
102 2 19.5929 -60.7406 58.3915
266 2 -17.9774 16.9039 24.6936
101 2 19.7119 -61.7175 56.2906
73 1 -50.6092 50.3846 19.5428
75 2 -50.8174 50.2917 20.6802
120 2 -7.32829 -18.2826 92.5586
139 1 19.0429 36.7845 27.1323
140 2 19.1434 37.263 28.1842
152 2 -1.30701 38.4551 63.73
151 1 -1.85941 39.4383 64.0018
153 2 -2.41182 40.4214 64.2737
66 2 -3.8863 7.06643 101.939
64 1 -2.95241 7.42115 101.349
65 2 -2.01851 7.77587 100.76
211 1 -11.3766 16.6213 -5.27625
212 2 -10.5609 15.9038 -5.68294
71 2 21.211 -20.6595 -36.685
89 2 54.9494 51.9641 -3.9304
213 2 -12.1923 17.3388 -4.86956
70 1 22.1744 -20.6494 -37.3311
72 2 23.1377 -20.6392 -37.9773
137 2 70.3436 -26.1788 32.6094
138 2 69.0087 -24.8369 33.9509
136 1 69.6762 -25.5079 33.2801
231 2 63.3134 18.6208 38.8943
234 2 -43.0419 22.333 3.00453
233 2 -43.0524 23.5414 1.02408
229 1 64.023 18.9449 38.0359
232 1 -43.0472 22.9372 2.0143
230 2 64.7327 19.2691 37.1775
117 2 28.7685 25.2301 42.6218
115 1 28.2111 24.6113 43.4292
113 2 29.762 19.6838 6.89361
112 1 29.5303 19.9204 8.00535
116 2 27.6537 23.9924 44.2366
36 2 21.2438 -37.3418 41.218
25 1 -13.6511 -40.8309 -29.9366
34 1 20.6846 -37.8521 40.3391
27 2 -14.5219 -41.5778 -29.7651
26 2 -12.7803 -40.084 -30.1081
35 2 20.1253 -38.3625 39.4603
185 2 -11.1534 -40.7342 8.70457
60 2 90.6333 18.5348 -21.9658
42 2 18.7091 56.2107 17.5072
97 1 -2.80476 61.2369 16.6431
30 2 -0.245255 24.2305 49.7043
99 2 -3.84917 61.7415 16.6295
43 1 30.508 20.795 17.5374
44 2 30.9168 21.8347 17.2253
98 2 -1.76036 60.7323 16.6567
114 2 29.2987 20.1571 9.11708
157 1 -4.24971 26.6984 45.9809
158 2 -4.93524 26.7104 45.0452
45 2 30.0991 19.7553 17.8495
159 2 -3.56418 26.6864 46.9165
10 1 -9.67204 -4.00867 -21.7888
186 2 -9.18952 -41.4606 9.70352
11 2 -9.80688 -5.12555 -21.506
12 2 -9.53721 -2.89179 -22.0716
184 1 -10.1714 -41.0974 9.20404
268 1 32.1369 63.262 14.1143
270 2 33.2908 63.3631 14.1775
269 2 30.9831 63.1608 14.0511
126 2 30.012 34.3069 17.6775
124 1 29.3239 33.4288 17.9954
40 1 18.8866 56.4709 18.6237
41 2 19.0641 56.7311 19.7401
24 2 -2.05692 26.9234 19.7832
118 1 -7.55965 -17.1507 92.4542
119 2 -7.79101 -16.0188 92.3498
249 2 23.7683 64.8312 18.7003
247 1 24.0576 63.9938 19.4491
248 2 24.3469 63.1565 20.198
125 2 28.6358 32.5507 18.3132
22 1 -2.0065 27.4409 20.8201
23 2 -1.95609 27.9584 21.8571
50 2 -4.90012 -4.79128 -17.3301
49 1 -4.13161 -5.62696 -17.0921
51 2 -3.3631 -6.46265 -16.8541
294 2 25.7853 18.2586 69.5181
292 1 26.6401 18.9526 69.1531
183 2 55.348 23.1387 27.072
289 1 22.5141 55.8557 32.1448
182 2 56.6776 24.99 27.5043
181 1 56.0128 24.0644 27.2882
290 2 23.4199 56.522 32.4298
291 2 21.6083 55.1894 31.8598
293 2 27.4949 19.6466 68.7881
147 2 -3.54192 57.1155 31.2637
145 1 -4.5756 57.5762 31.009
146 2 -5.60928 58.037 30.7544
ITEM: TIMESTEP
10000
ITEM: NUMBER OF ATOMS
300
ITEM: BOX BOUNDS pp pp pp
0.0000000000000000e+00 3.6000000000000000e+01
0.0000000000000000e+00 3.6000000000000000e+01
0.0000000000000000e+00 3.6000000000000000e+01
ITEM: ATOMS id type xu yu zu
121 1 78.5468 49.744 -28.0904
26 2 -32.3277 -34.6119 -27.7683
123 2 77.9218 50.6122 -27.6418
117 2 45.3368 16.541 39.0746
173 2 52 11.5824 -27.2764
115 1 45.3618 17.3978 39.8562
249 2 17.2954 88.3515 9.0005
88 1 50.3805 40.1537 0.0708462
87 2 77.9008 17.1602 6.57555
89 2 49.5231 39.4761 0.459656
122 2 79.1718 48.8758 -28.5389
77 2 7.60674 47.3428 -0.0307758
143 2 77.6766 50.1275 3.85304
9 2 37.3853 16.1294 2.05946
142 1 77.0496 49.885 4.79837
8 2 39.4849 16.4786 2.98252
144 2 76.4226 49.6424 5.74371
7 1 38.4351 16.304 2.52099
27 2 -31.4406 -35.2907 -25.735
174 2 51.7566 13.8025 -26.6484
102 2 45.5853 -59.6361 84.1144
3 2 43.9431 5.47101 -22.5541
1 1 43.7118 5.07436 -23.6193
2 2 43.4806 4.67771 -24.6846
235 1 40.7921 51.781 11.5492
104 2 0.510506 -29.65 -25.1755
105 2 1.5764 -30.5759 -23.3346
83 2 2.84005 11.9202 48.0908
84 2 1.77653 13.3933 46.6481
237 2 40.2401 50.7666 11.6578
236 2 41.3441 52.7955 11.4406
103 1 1.04345 -30.1129 -24.255
100 1 46.2358 -58.6864 84.2572
254 2 36.1263 17.2567 45.6647
82 1 2.30829 12.6568 47.3694
110 2 14.3676 51.4443 -60.4342
101 2 46.8863 -57.7366 84.4
111 2 15.7161 50.4777 -58.8126
109 1 15.0418 50.961 -59.6234
25 1 -31.8841 -34.9513 -26.7516
172 1 51.8783 12.6924 -26.9624
145 1 -19.0337 47.7389 -12.6999
48 2 5.2605 9.95508 55.2039
47 2 5.84016 12.2014 55.2254
169 1 16.0382 1.38204 26.1671
171 2 15.737 0.916002 25.1484
147 2 -19.675 48.2686 -13.5085
160 1 2.74403 16.746 57.4884
162 2 2.96453 16.863 58.6212
146 2 -18.3923 47.2093 -11.8914
46 1 5.55033 11.0782 55.2147
161 2 2.52354 16.6291 56.3556
259 1 44.1859 41.6988 63.9696
37 1 -20.2908 17.0182 -1.27655
260 2 43.1401 41.2792 64.2447
294 2 40.4683 12.692 71.6706
262 1 42.0385 14.0868 69.6184
263 2 41.1402 14.1627 68.8885
293 2 39.0066 14.4666 71.9815
264 2 42.9369 14.011 70.3484
292 1 39.7375 13.5793 71.8261
78 2 9.6534 48.4287 0.0888572
76 1 8.63007 47.8858 0.0290411
137 2 47.5037 -57.2525 33.4846
136 1 47.7478 -56.7881 34.5192
138 2 47.9919 -56.3237 35.5538
261 2 45.2318 42.1184 63.6945
39 2 -21.3856 16.661 -1.41601
38 2 -19.196 17.3753 -1.13709
170 2 16.3393 1.84807 27.1858
90 2 51.238 40.8313 -0.317962
246 2 15.2139 0.106262 70.4275
65 2 9.58724 -15.3857 115.892
195 2 42.2034 22.2331 44.8981
193 1 41.3597 21.4416 44.9844
194 2 40.5161 20.6501 45.0706
211 1 -19.5524 -2.52717 3.26229
159 2 8.07253 33.0702 37.5925
210 2 13.6845 -3.76374 7.1265
85 1 78.001 18.2985 6.7753
64 1 10.0408 -14.8773 114.953
66 2 10.4943 -14.3689 114.015
15 2 50.4146 61.4619 6.29421
13 1 50.9103 61.8346 5.31395
14 2 51.4061 62.2073 4.3337
208 1 13.3101 -4.6699 6.50658
213 2 -20.0443 -3.18929 2.44666
151 1 7.66159 32.9303 78.6606
153 2 8.77951 33.1029 78.9176
152 2 6.54368 32.7576 78.4036
168 2 -18.7336 -6.13636 72.5388
201 2 -58.5963 -7.2938 3.12791
86 2 78.1012 19.4368 6.97505
212 2 -19.0605 -1.86505 4.07791
200 2 -58.8055 -6.24958 1.06678
199 1 -58.7009 -6.77169 2.09734
209 2 12.9357 -5.57606 5.88666
257 2 13.0279 -7.32305 116.902
157 1 7.77838 32.2353 36.8428
116 2 45.3868 18.2546 40.6378
4 1 9.06416 55.3273 -25.3252
298 1 8.02128 -14.8802 16.1959
300 2 7.22381 -14.0453 16.0839
44 2 40.3343 26.741 -27.2453
45 2 42.3917 27.6 -26.6036
43 1 41.363 27.1705 -26.9244
6 2 8.8489 54.3783 -25.9565
299 2 8.81875 -15.7152 16.3078
270 2 47.7899 95.2682 13.6029
5 2 9.27943 56.2764 -24.6939
258 2 11.0486 -7.21763 118.108
268 1 46.7145 94.914 13.855
269 2 45.639 94.5598 14.1071
134 2 0.655574 -7.52172 11.2989
256 1 12.0382 -7.27034 117.505
240 2 8.52066 64.1681 48.7999
238 1 8.43152 65.2269 48.3345
239 2 8.34238 66.2858 47.8692
52 1 16.8908 61.3075 -18.3988
133 1 0.299449 -7.26524 10.2251
53 2 16.1385 60.8461 -19.1516
243 2 -20.6292 -9.48467 56.4903
74 2 -55.0492 59.9522 24.8714
189 2 49.6272 32.388 57.1918
156 2 47.5862 24.5461 -10.5035
62 2 53.4832 59.6557 20.9152
54 2 17.643 61.7689 -17.6459
242 2 -21.6987 -11.469 55.9415
73 1 -56.0401 60.1107 24.2895
75 2 -57.0309 60.2693 23.7075
155 2 47.7139 25.6473 -12.5415
154 1 47.65 25.0967 -11.5225
188 2 49.288 33.1771 55.0367
187 1 49.4576 32.7826 56.1142
241 1 -21.1639 -10.4768 56.2159
280 1 5.12782 18.2057 -1.92367
177 2 49.2831 30.5039 -37.8744
281 2 4.53857 18.2994 -0.928873
231 2 47.0603 24.2336 35.247
167 2 -18.9287 -8.05782 71.2534
166 1 -18.8311 -7.09709 71.8961
230 2 44.7526 24.4716 35.2447
229 1 45.9065 24.3526 35.2458
158 2 7.48422 31.4005 36.093
244 1 15.7773 -0.619992 71.135
266 2 -23.726 19.3785 -1.83997
267 2 -21.5466 20.0613 -2.24795
94 1 1.4387 31.2898 32.0803
98 2 11.6461 71.6444 34.7088
33 2 -57.2487 -38.4328 -4.83552
32 2 -58.9711 -38.663 -6.37271
176 2 49.8459 32.744 -37.6564
127 1 13.4023 -6.77285 -41.2065
129 2 13.2136 -5.63645 -41.0702
128 2 13.5909 -7.90925 -41.3429
31 1 -58.1099 -38.5479 -5.60411
99 2 10.1238 69.9675 35.2119
97 1 10.885 70.8059 34.9604
96 2 0.307039 31.1127 31.897
175 1 49.5645 31.6239 -37.7654
95 2 2.57035 31.4668 32.2635
265 1 -22.6363 19.7199 -2.04396
245 2 16.3408 -1.34625 71.8426
282 2 5.71706 18.112 -2.91846
72 2 18.94 3.86094 -31.5918
119 2 -4.28459 -28.8516 80.2912
70 1 19.1014 2.9109 -30.946
71 2 19.2628 1.96087 -30.3003
131 2 -7.27722 6.37024 1.16742
130 1 -7.38663 5.29531 1.58951
132 2 -7.49604 4.22038 2.01161
184 1 -37.29 -61.5491 0.419861
228 2 -2.5149 13.2471 7.5076
220 1 70.9769 8.04481 79.0231
214 1 65.5858 48.4533 41.6081
186 2 -36.737 -60.7137 1.00459
227 2 -2.23304 14.2599 5.43947
215 2 66.4114 48.8595 42.3144
226 1 -2.37397 13.7535 6.47353
118 1 -3.46506 -29.58 80.67
216 2 64.7601 48.0472 40.9017
221 2 70.8049 8.77556 79.9074
197 2 -15.539 3.11031 0.959171
222 2 71.1489 7.31406 78.1388
196 1 -16.1911 2.45058 0.262632
60 2 94.4525 41.4405 -20.3815
58 1 93.696 42.1049 -20.9577
59 2 92.9395 42.7692 -21.5339
255 2 33.9125 16.7398 46.1281
248 2 18.8472 87.2313 10.3118
218 2 -10.5893 3.20735 54.0933
120 2 -2.64552 -30.3083 81.0488
279 2 35.9539 36.8704 -25.5169
217 1 -10.2452 2.51352 53.2298
219 2 -9.901 1.81969 52.3662
247 1 18.0713 87.7914 9.65614
253 1 35.0194 16.9982 45.8964
181 1 69.0016 40.2688 26.5319
183 2 69.2664 41.305 26.9811
69 2 25.7397 -22.3702 25.2125
251 2 -7.6125 10.0134 21.6486
250 1 -8.41453 10.3993 20.9047
67 1 26.5942 -23.0053 25.6729
252 2 -9.21657 10.7852 20.1607
68 2 27.4487 -23.6404 26.1334
182 2 68.7369 39.2327 26.0826
36 2 -15.9553 -34.3061 30.7457
34 1 -15.4761 -33.7654 31.6533
35 2 -14.997 -33.2248 32.5608
16 1 29.7446 87.789 -1.21909
198 2 -16.8431 1.79085 -0.433906
225 2 35.5244 2.33089 64.4669
223 1 35.4253 1.55739 65.3257
224 2 35.3261 0.783904 66.1844
91 1 25.1291 -18.1907 -4.44229
204 2 -7.29235 16.7801 -5.98871
232 1 -49.9188 14.4098 -5.38802
233 2 -49.7065 13.4472 -5.99953
234 2 -50.1312 15.3723 -4.77652
287 2 -9.414 -22.1251 -5.44692
92 2 25.7263 -19.1416 -4.151
290 2 19.6446 47.5459 28.1611
203 2 -5.7253 16.844 -4.27913
18 2 28.6242 87.4906 -1.25428
286 1 -10.3812 -21.6325 -5.85617
288 2 -11.3484 -21.1399 -6.26543
289 1 19.2838 47.7628 29.242
202 1 -6.50882 16.8121 -5.13392
291 2 18.923 47.9797 30.3229
17 2 30.865 88.0873 -1.18389
185 2 -37.8431 -62.3844 -0.164867
191 2 -8.47091 21.4736 2.64698
190 1 -8.67652 20.9602 1.62735
207 2 -5.06211 -51.6642 1.42491
192 2 -8.88214 20.4467 0.607709
205 1 -5.00712 -51.1323 0.395519
271 1 25.538 28.0256 46.7375
273 2 24.977 27.1202 46.278
80 2 24.8204 59.6934 -23.0104
81 2 26.6768 60.8891 -23.722
79 1 25.7486 60.2912 -23.3662
164 2 -5.28081 23.8293 9.40867
163 1 -4.97136 23.8631 10.5261
165 2 -4.66192 23.8968 11.6436
10 1 -5.48483 -13.8592 -18.5553
11 2 -6.62589 -13.6891 -18.4343
12 2 -4.34378 -14.0293 -18.6764
284 2 27.0488 18.9538 16.6603
283 1 28.1792 19.1774 16.7934
285 2 29.3097 19.4009 16.9264
272 2 26.0991 28.9309 47.197
140 2 21.9057 27.182 49.5911
139 1 21.3035 28.1657 49.4679
141 2 20.7012 29.1494 49.3447
50 2 -10.4448 -5.27009 -20.6635
51 2 -11.8457 -6.70208 -21.8338
49 1 -11.1453 -5.98609 -21.2487
42 2 35.7175 54.8847 17.4681
135 2 -0.0566748 -7.00875 9.15136
278 2 35.7715 34.6017 -25.9665
277 1 35.8627 35.7361 -25.7417
150 2 -15.7374 -50.7331 21.243
148 1 -16.6002 -51.4256 21.5916
149 2 -17.4631 -52.1181 21.9403
63 2 55.1456 61.0172 21.7899
61 1 54.3144 60.3364 21.3526
21 2 -16.174 23.7119 -10.2927
41 2 35.2578 55.1974 19.7205
40 1 35.4877 55.0411 18.5943
20 2 -14.7581 22.0087 -9.60215
57 2 -3.14226 -7.22383 22.423
108 2 30.538 59.9939 -15.0496
106 1 30.7776 58.8996 -15.3509
107 2 31.0172 57.8054 -15.6522
56 2 -1.0588 -6.70822 23.3037
55 1 -2.10053 -6.96603 22.8633
19 1 -15.4661 22.8603 -9.9474
124 1 20.8647 28.9632 35.1835
126 2 19.8004 28.5037 35.2249
30 2 -1.24402 31.3229 71.5987
296 2 -1.26577 31.7357 -78.6948
113 2 60.4854 30.0313 -3.79243
297 2 -2.8784 31.4153 -77.058
295 1 -2.07209 31.5755 -77.8764
206 2 -4.95213 -50.6003 -0.633871
93 2 24.532 -17.2398 -4.73358
274 1 -3.42505 26.1768 28.9855
276 2 -2.51981 25.8992 28.3154
29 2 -1.52798 29.4358 70.2794
114 2 61.4558 31.7433 -2.56368
22 1 -10.8129 24.977 30.0008
179 2 -4.69747 24.6326 33.4359
24 2 -10.7839 25.3278 31.1061
180 2 -6.38261 24.3877 35.0116
178 1 -5.54004 24.5101 34.2238
23 2 -10.8419 24.6262 28.8955
275 2 -4.3303 26.4544 29.6556
112 1 60.9706 30.8873 -3.17805
28 1 -1.386 30.3794 70.9391
125 2 21.929 29.4228 35.142
ITEM: TIMESTEP
20000
ITEM: NUMBER OF ATOMS
300
ITEM: BOX BOUNDS pp pp pp
0.0000000000000000e+00 3.6000000000000000e+01
0.0000000000000000e+00 3.6000000000000000e+01
0.0000000000000000e+00 3.6000000000000000e+01
ITEM: ATOMS id type xu yu zu
135 2 4.71719 9.83864 4.7059
134 2 3.7935 7.71082 4.7455
225 2 49.2174 6.46736 73.4971
84 2 13.479 13.8594 42.0215
133 1 4.25534 8.77473 4.7257
223 1 50.1242 6.54822 74.2161
130 1 -25.0953 8.08882 2.91397
131 2 -25.2123 9.12787 2.41167
274 1 15.3281 39.805 43.5596
275 2 16.4557 39.5559 43.4504
276 2 14.2004 40.0541 43.6688
132 2 -24.9784 7.04978 3.41628
229 1 17.8222 46.5757 40.7747
211 1 -22.1557 0.746367 4.58183
213 2 -22.3497 1.76652 4.06485
83 2 14.1102 11.6275 41.9701
257 2 2.0532 11.6766 116.024
256 1 2.29055 10.6257 116.454
82 1 13.7946 12.7434 41.9958
67 1 15.8082 -27.6768 8.98342
68 2 16.0904 -28.667 8.44905
218 2 13.9398 12.3847 81.274
224 2 51.0309 6.62908 74.935
231 2 17.5681 45.6483 40.126
258 2 2.5279 9.57486 116.884
220 1 73.461 6.88759 85.1216
222 2 74.2839 6.07139 85.0738
221 2 72.6381 7.70378 85.1694
292 1 42.422 5.41288 83.1043
294 2 42.2134 5.96815 84.1012
293 2 42.6305 4.85761 82.1074
69 2 15.526 -26.6867 9.51779
219 2 11.7726 12.2653 82.0935
77 2 2.3396 47.9939 13.2043
78 2 3.20811 47.8793 11.0561
76 1 2.77386 47.9366 12.1302
10 1 1.0042 -19.2377 -25.6757
11 2 2.13315 -18.9778 -25.6163
217 1 12.8562 12.325 81.6837
227 2 4.92458 8.91879 23.1107
74 2 -55.8819 78.9453 26.1074
228 2 6.09247 7.01411 23.7357
226 1 5.50852 7.96645 23.4232
73 1 -54.7379 78.7577 26.0681
94 1 8.40711 38.9085 25.8217
95 2 8.57924 38.6091 24.7143
96 2 8.23498 39.2079 26.9291
300 2 6.80084 -0.166798 -8.26229
200 2 -71.9344 -30.4629 -3.13313
98 2 17.7459 77.7972 29.9827
104 2 6.22489 -35.6742 -40.1111
268 1 46.4853 120.668 -1.57374
97 1 18.1804 76.8748 30.5358
281 2 4.67928 2.77873 -7.38871
280 1 4.07265 2.46002 -6.45275
282 2 3.46602 2.14131 -5.51679
269 2 45.9646 120.818 -0.54809
270 2 47.006 120.518 -2.59939
273 2 17.0171 22.67 43.5943
250 1 -30.5238 32.2626 38.4002
251 2 -29.8586 33.0606 37.8843
193 1 49.2632 32.2503 42.3153
194 2 49.931 32.8489 43.051
29 2 11.2812 28.4178 78.7323
252 2 -31.1891 31.4646 38.9162
30 2 9.49419 29.3895 77.6165
28 1 10.3877 28.9037 78.1744
195 2 48.5954 31.6518 41.5795
271 1 17.2631 21.8354 44.3614
212 2 -21.9618 -0.273785 5.09881
6 2 8.11527 60.7608 -20.0587
4 1 7.30137 61.2555 -19.3966
5 2 6.48746 61.7502 -18.7344
175 1 46.9567 62.1585 -57.9716
177 2 47.0732 61.0699 -58.355
55 1 -24.7015 21.2113 11.8271
157 1 13.9846 24.632 53.189
56 2 -24.7866 20.2024 12.3931
272 2 17.5092 21.0008 45.1286
158 2 15.1215 24.8187 53.3239
57 2 -24.6164 22.2203 11.2611
159 2 12.8477 24.4453 53.0541
176 2 46.8403 63.2471 -57.5881
101 2 51.1608 -42.9892 89.5023
37 1 -29.6929 21.052 26.1447
38 2 -29.316 22.0542 25.6987
39 2 -30.0698 20.0497 26.5908
13 1 48.2722 66.218 -16.97
14 2 48.7826 65.8116 -16.0109
54 2 15.7382 60.3488 -13.749
100 1 51.4755 -43.1781 90.6027
296 2 1.50025 27.0595 -86.5268
297 2 -0.0196992 25.4169 -85.9152
295 1 0.740277 26.2382 -86.221
209 2 13.7867 -1.99806 -12.1789
208 1 14.2382 -2.71271 -12.9732
149 2 -17.6035 -44.6096 21.4994
245 2 46.7184 -4.24274 61.5249
210 2 14.6898 -3.42736 -13.7676
15 2 47.7618 66.6245 -17.9291
52 1 16.3587 60.5272 -14.7127
244 1 45.913 -3.40797 61.5393
246 2 45.1077 -2.57321 61.5537
102 2 51.7902 -43.3671 91.703
232 1 -70.302 -4.3656 -17.4241
233 2 -69.1587 -4.28243 -17.6016
53 2 16.9793 60.7056 -15.6763
234 2 -71.4453 -4.44877 -17.2466
16 1 6.66704 92.6004 -1.86417
17 2 6.27484 93.6747 -2.05821
18 2 7.05925 91.5261 -1.67013
192 2 0.8876 19.7555 -5.62296
110 2 6.95465 64.7809 -74.4883
105 2 6.88686 -37.4341 -38.7522
298 1 7.07881 -1.05224 -7.56635
152 2 2.22794 28.1139 68.363
103 1 6.55587 -36.5542 -39.4317
111 2 9.18447 65.1701 -73.9795
109 1 8.06956 64.9755 -74.2339
151 1 1.66958 28.962 68.9239
191 2 2.0182 19.7421 -3.59714
299 2 7.35678 -1.93769 -6.87042
190 1 1.4529 19.7488 -4.61005
153 2 1.11122 29.81 69.4848
277 1 28.8746 42.6946 7.59248
279 2 29.2923 43.6084 8.1723
278 2 28.457 41.7808 7.01265
215 2 65.399 37.9523 38.551
143 2 64.6565 37.5091 5.82704
144 2 62.3446 37.316 5.83269
263 2 35.2205 11.4091 40.426
138 2 34.5454 -71.3283 42.1027
142 1 63.5005 37.4126 5.82986
214 1 66.1978 38.5441 39.1488
216 2 66.9966 39.1358 39.7465
254 2 29.1351 10.7766 38.444
196 1 -17.3543 39.8018 4.04821
137 2 35.368 -69.1671 42.2892
197 2 -17.4594 39.3979 2.96589
262 1 35.3658 12.5252 40.7067
253 1 28.7072 11.726 38.955
168 2 -39.9392 -28.8815 80.4414
198 2 -17.2492 40.2057 5.13053
255 2 28.2793 12.6754 39.466
136 1 34.9567 -70.2477 42.1959
264 2 35.511 13.6413 40.9874
230 2 18.0764 47.5032 41.4234
120 2 -7.96899 -35.4181 80.5117
174 2 68.5508 2.87847 0.514364
124 1 29.6819 48.4549 53.0905
154 1 69.0806 17.4753 16.8882
155 2 68.6468 16.7194 17.6538
167 2 -40.7078 -28.2114 82.5253
119 2 -6.74055 -33.8381 81.6852
118 1 -7.35477 -34.6281 81.0984
12 2 -0.124739 -19.4976 -25.7352
166 1 -40.3235 -28.5464 81.4834
125 2 30.2561 48.3253 52.091
9 2 24.0137 49.6879 20.7723
7 1 24.8382 49.3373 20.0355
122 2 92.2839 51.0277 -15.7023
126 2 29.1078 48.5846 54.0901
207 2 -14.059 -59.9813 19.3489
205 1 -15.0238 -60.3676 19.8643
284 2 21.9094 10.3695 22.2734
285 2 21.4381 8.21102 22.9815
283 1 21.6738 9.29026 22.6275
206 2 -15.9886 -60.7539 20.3796
46 1 -4.81593 12.2002 62.1548
48 2 -4.21243 12.3963 61.1838
114 2 54.0931 18.2027 -14.8758
179 2 -12.8846 8.18332 55.8053
121 1 93.0143 51.8887 -15.9685
178 1 -13.8558 8.31996 55.1859
8 2 25.6626 48.9867 19.2986
123 2 93.7447 52.7497 -16.2347
75 2 -53.5938 78.57 26.0289
180 2 -14.827 8.4566 54.5664
128 2 23.0133 3.48548 -41.7656
127 1 24.0008 4.0053 -41.449
129 2 24.9883 4.52513 -41.1323
47 2 -5.41943 12.004 63.1258
44 2 28.4056 42.6682 -44.8821
203 2 -13.63 36.3155 -1.01923
172 1 69.4435 3.02102 -0.212626
201 2 -72.8986 -29.3638 -4.93436
43 1 27.745 41.8089 -44.4689
146 2 -41.1689 14.1418 -4.76989
163 1 -2.5661 10.5317 -2.89126
164 2 -1.86156 9.74875 -3.37729
147 2 -42.1171 14.5581 -2.69382
165 2 -3.27065 11.3146 -2.40522
34 1 -6.51642 -62.1153 35.3079
145 1 -41.643 14.35 -3.73185
36 2 -5.5762 -62.5148 35.8575
173 2 70.3361 3.16356 -0.939617
45 2 27.0843 40.9496 -44.0557
182 2 61.5788 36.6505 29.2787
99 2 18.6149 75.9524 31.089
199 1 -72.4165 -29.9134 -4.03375
35 2 -7.45663 -61.7159 34.7584
189 2 70.019 -2.76809 78.5495
41 2 33.64 19.6882 6.31309
42 2 34.8528 18.9912 8.16393
261 2 67.2734 60.6657 77.5297
260 2 68.8223 59.1253 78.311
259 1 68.0479 59.8955 77.9204
40 1 34.2464 19.3397 7.23851
188 2 69.0072 -2.46843 76.4834
22 1 -10.0217 31.8724 37.1891
23 2 -9.59215 30.7955 37.2257
187 1 69.5131 -2.61826 77.5165
266 2 -48.2834 34.8416 -30.1693
265 1 -47.6668 34.8835 -31.151
24 2 -10.4512 32.9493 37.1525
267 2 -47.0503 34.9254 -32.1327
72 2 29.4171 -1.61201 -35.354
248 2 24.5763 94.261 -0.332992
33 2 -49.6733 -49.0862 -19.512
241 1 -14.0367 -7.16468 47.4541
80 2 18.7745 57.1751 -19.3603
79 1 18.805 58.182 -18.7852
117 2 58.369 21.956 46.7454
115 1 58.8234 20.8898 46.6966
31 1 -49.4571 -49.8617 -20.3472
185 2 -9.40073 -87.947 -22.3239
116 2 59.2779 19.8237 46.6477
184 1 -9.69662 -88.0741 -21.2095
108 2 24.056 61.4775 -19.3262
186 2 -9.99251 -88.2012 -20.0951
32 2 -49.2409 -50.6372 -21.1823
106 1 23.2936 61.931 -20.0737
3 2 60.2593 -1.82346 -21.0337
89 2 56.3078 35.2863 -18.6409
1 1 59.739 -2.84252 -20.8431
107 2 22.5312 62.3844 -20.8211
2 2 59.2186 -3.86157 -20.6525
243 2 -14.0799 -6.18122 48.0678
242 2 -13.9935 -8.14813 46.8405
156 2 69.5143 18.2312 16.1226
81 2 18.8355 59.1889 -18.21
62 2 68.3648 63.832 18.0948
60 2 94.6266 55.8901 -15.4097
91 1 19.7691 -10.5786 -13.1536
93 2 18.7872 -10.9898 -12.6928
150 2 -16.2301 -44.3269 19.6511
26 2 -50.7905 -50.134 -11.354
58 1 93.9431 56.1624 -16.3065
88 1 55.5499 34.7201 -17.9696
19 1 -17.6778 22.2063 -11.5733
61 1 68.7874 64.2528 19.0898
139 1 23.5002 23.3522 55.6965
141 2 22.3977 23.0247 55.8474
140 2 24.6028 23.6796 55.5456
20 2 -17.7773 22.6967 -10.5267
92 2 20.751 -10.1674 -13.6145
27 2 -49.0246 -50.2008 -9.85077
59 2 93.2597 56.4347 -17.2034
25 1 -49.9076 -50.1674 -10.6024
51 2 -5.72787 -16.6698 -16.4796
50 2 -7.54585 -15.8395 -17.6577
49 1 -6.63686 -16.2547 -17.0687
161 2 25.7013 -10.472 58.8102
291 2 21.4345 31.931 18.2133
63 2 69.2101 64.6736 20.0847
286 1 -12.4023 -7.28666 -14.949
289 1 21.6478 30.8483 18.5708
288 2 -12.2332 -6.13962 -14.913
160 1 24.8094 -11.2113 58.8701
287 2 -12.5714 -8.43371 -14.985
162 2 23.9174 -11.9505 58.93
113 2 53.9033 20.3848 -15.6406
240 2 -15.9384 32.9692 22.4542
90 2 54.792 34.1539 -17.2984
238 1 -16.0136 31.8446 22.1797
21 2 -17.5783 21.716 -12.6199
148 1 -16.9168 -44.4683 20.5752
239 2 -16.0888 30.7201 21.9053
112 1 53.9982 19.2937 -15.2582
290 2 21.8611 29.7656 18.9284
65 2 20.6086 -8.53087 137.139
236 2 59.6185 59.7988 -3.67825
237 2 60.4974 58.4273 -5.33019
235 1 60.058 59.113 -4.50422
64 1 20.6846 -9.32415 137.982
66 2 20.7605 -10.1174 138.825
86 2 71.1984 27.059 -0.861552
183 2 62.0022 34.5217 30.0981
71 2 28.9728 -1.99543 -37.5985
204 2 -12.0826 34.8319 -1.90628
181 1 61.7905 35.5861 29.6884
171 2 23.0715 -4.00186 30.658
169 1 23.4489 -3.41015 29.7344
202 1 -12.8563 35.5737 -1.46276
170 2 23.8263 -2.81844 28.8108
247 1 25.5337 94.0923 -0.965931
85 1 70.5077 27.9784 -0.70925
249 2 26.4911 93.9237 -1.59887
70 1 29.1949 -1.80372 -36.4762
87 2 69.8171 28.8978 -0.556946
ITEM: TIMESTEP
30000
ITEM: NUMBER OF ATOMS
300
ITEM: BOX BOUNDS pp pp pp
0.0000000000000000e+00 3.6000000000000000e+01
0.0000000000000000e+00 3.6000000000000000e+01
0.0000000000000000e+00 3.6000000000000000e+01
ITEM: ATOMS id type xu yu zu
121 1 87.2411 45.1956 4.71711
70 1 41.7683 9.98787 -71.9658
7 1 36.8026 51.9095 42.2892
122 2 86.4105 45.0316 3.92415
123 2 88.0718 45.3597 5.51008
71 2 41.7593 11.0906 -71.606
8 2 37.6024 52.387 42.9806
21 2 -25.6741 17.2509 -27.1909
98 2 14.6339 73.2628 52.8525
294 2 45.2925 9.90417 83.2053
96 2 7.72077 38.4145 14.4066
94 1 7.5428 39.152 13.5291
95 2 7.36483 39.8894 12.6515
292 1 44.8104 10.5175 82.3468
39 2 -20.8209 41.1841 45.837
20 2 -25.3866 15.2342 -26.0807
293 2 44.3283 11.1308 81.4883
19 1 -25.5304 16.2425 -26.6358
97 1 15.4267 73.4752 52.0328
271 1 12.0993 12.5802 15.4389
273 2 12.5726 11.5341 15.2738
272 2 11.626 13.6263 15.604
99 2 16.2195 73.6875 51.213
37 1 -20.4598 41.2869 46.9346
38 2 -20.0987 41.3897 48.0321
136 1 39.497 -70.3383 62.3692
137 2 40.1106 -69.4119 62.7021
244 1 44.3511 -34.3583 62.2935
246 2 44.2187 -34.7317 61.2032
131 2 -19.1534 12.7259 -12.6913
111 2 11.3813 74.7822 -81.832
109 1 12.1616 75.5652 -81.4803
110 2 12.9418 76.3482 -81.1285
60 2 88.262 44.8478 -11.5044
48 2 11.2377 36.7795 58.8656
80 2 17.4333 41.8 -15.554
58 1 88.9894 44.7607 -10.6051
130 1 -19.2364 11.806 -13.3931
138 2 38.8833 -71.2646 62.0362
47 2 10.4618 38.9537 58.6349
132 2 -19.3193 10.8861 -14.0949
46 1 10.8497 37.8666 58.7502
59 2 89.7168 44.6736 -9.70571
295 1 5.68634 36.2388 -85.9374
296 2 6.31445 36.227 -86.9126
252 2 -62.6125 52.0624 70.3125
211 1 -24.3221 10.068 -1.19621
62 2 48.4442 52.3262 32.6032
251 2 -64.3576 50.9703 71.3824
250 1 -63.4851 51.5163 70.8474
213 2 -24.1019 11.1682 -0.901701
212 2 -24.5423 8.96788 -1.49071
61 1 48.7062 53.3877 32.9907
72 2 41.7773 8.88513 -72.3257
245 2 44.4836 -33.9849 63.3837
248 2 37.3619 92.4649 3.45462
247 1 38.4952 92.3375 3.6666
249 2 39.6285 92.21 3.87857
170 2 46.6275 -12.3048 36.59
169 1 46.2405 -13.3022 36.1417