LAMMPS data file for n2/co2

1800 atoms
4 atom types
1200 bonds
2 bond types

0 36  xlo xhi
0 36  ylo yhi
0 36  zlo zhi

Masses

1 12.0107
2 15.9999
3 28.0134
4 2

Pair Coeffs # lj/cut/coul/long

1 0.0536548 2.8
2 0.15699 3.05
3 0 0
4 0.0715394 3.31

Atoms # full

1 1 1 0.7 8.452131 12.898514 26.510471 0 0 0
2 1 2 -0.35 8.781401 11.892441 26.036131 0 0 0
3 1 2 -0.35 8.122861 13.904587 26.984812 0 0 0
4 2 1 0.7 8.725953 10.67052 30.579386 0 0 0
5 2 2 -0.35 8.008686 9.759313 30.608178 0 0 0
6 2 2 -0.35 9.443219 11.581728 30.550594 0 0 0
7 3 1 0.7 25.052349 30.25829 3.526185 0 0 0
8 3 2 -0.35 26.11951 30.033331 3.921357 0 0 0
9 3 2 -0.35 23.985188 30.48325 3.131013 0 0 0
10 4 1 0.7 28.387759 9.762149 27.147409 0 0 0
11 4 2 -0.35 28.615181 10.360599 28.114744 0 0 0
12 4 2 -0.35 28.160336 9.1637 26.180074 0 0 0
13 5 1 0.7 23.503699 18.75742 22.623862 0 0 0
14 5 2 -0.35 24.520455 18.308431 22.955851 0 0 0
15 5 2 -0.35 22.486943 19.206409 22.291874 0 0 0
16 6 1 0.7 13.915901 2.032212 14.446343 0 0 0
17 6 2 -0.35 13.883272 2.065404 15.605409 0 0 0
18 6 2 -0.35 13.948529 1.99902 13.287277 0 0 0
19 7 1 0.7 6.777959 8.556769 14.625753 0 0 0
20 7 2 -0.35 6.250668 8.907884 13.654011 0 0 0
21 7 2 -0.35 7.305251 8.205654 15.597495 0 0 0
22 8 1 0.7 26.436892 5.483958 7.006142 0 0 0
23 8 2 -0.35 27.31271 5.459441 7.766368 0 0 0
24 8 2 -0.35 25.561074 5.508474 6.245917 0 0 0
25 9 1 0.7 19.326724 16.008866 15.344718 0 0 0
26 9 2 -0.35 19.518151 16.373728 16.429076 0 0 0
27 9 2 -0.35 19.135298 15.644004 14.260361 0 0 0
28 10 1 0.7 12.886259 7.725677 15.772172 0 0 0
29 10 2 -0.35 13.987082 8.091352 15.763747 0 0 0
30 10 2 -0.35 11.785437 7.360001 15.780597 0 0 0
31 11 1 0.7 20.964983 13.396364 16.053221 0 0 0
32 11 2 -0.35 20.542769 13.958801 15.130724 0 0 0
33 11 2 -0.35 21.387197 12.833927 16.975717 0 0 0
34 12 1 0.7 8.671005 14.29737 9.025927 0 0 0
35 12 2 -0.35 7.806175 13.527548 8.954905 0 0 0
36 12 2 -0.35 9.535835 15.067191 9.096949 0 0 0
37 13 1 0.7 10.163264 7.512795 3.869716 0 0 0
38 13 2 -0.35 10.893504 8.175217 4.480901 0 0 0
39 13 2 -0.35 9.433024 6.850374 3.258531 0 0 0
40 14 1 0.7 21.965051 8.307281 5.19639 0 0 0
41 14 2 -0.35 22.690788 7.402847 5.226467 0 0 0
42 14 2 -0.35 21.239314 9.211715 5.166314 0 0 0
43 15 1 0.7 13.38222 19.275755 30.956266 0 0 0
44 15 2 -0.35 14.329166 19.357001 31.621316 0 0 0
45 15 2 -0.35 12.435273 19.19451 30.291215 0 0 0
46 16 1 0.7 19.558639 7.448899 24.289419 0 0 0
47 16 2 -0.35 19.457128 6.982084 25.34648 0 0 0
48 16 2 -0.35 19.660149 7.915715 23.232358 0 0 0
49 17 1 0.7 23.490541 13.43744 2.882798 0 0 0
50 17 2 -0.35 24.332951 14.234633 2.903504 0 0 0
51 17 2 -0.35 22.64813 12.640248 2.862092 0 0 0
52 18 1 0.7 26.944631 19.396399 15.158594 0 0 0
53 18 2 -0.35 26.637022 20.51406 15.116056 0 0 0
54 18 2 -0.35 27.252241 18.278737 15.201132 0 0 0
55 19 1 0.7 2.129584 6.514049 9.408722 0 0 0
56 19 2 -0.35 2.005951 6.152243 8.313546 0 0 0
57 19 2 -0.35 2.253217 6.875856 10.503899 0 0 0
58 20 1 0.7 2.618759 11.819547 26.061469 0 0 0
59 20 2 -0.35 2.414806 10.845278 26.657122 0 0 0
60 20 2 -0.35 2.822711 12.793816 25.465815 0 0 0
61 21 1 0.7 28.018289 20.194998 2.976862 0 0 0
62 21 2 -0.35 26.884615 20.272764 2.743762 0 0 0
63 21 2 -0.35 29.151963 20.117233 3.209962 0 0 0
64 22 1 0.7 19.753186 10.168939 8.848654 0 0 0
65 22 2 -0.35 19.73316 10.712238 7.823946 0 0 0
66 22 2 -0.35 19.773212 9.62564 9.873361 0 0 0
67 23 1 0.7 24.396137 7.04573 20.821742 0 0 0
68 23 2 -0.35 24.166913 7.842514 20.010452 0 0 0
69 23 2 -0.35 24.625361 6.248945 21.633032 0 0 0
70 24 1 0.7 23.233526 25.750591 29.293077 0 0 0
71 24 2 -0.35 23.490797 24.656444 29.006279 0 0 0
72 24 2 -0.35 22.976254 26.844738 29.579875 0 0 0
73 25 1 0.7 20.646891 4.099758 18.39517 0 0 0
74 25 2 -0.35 21.118859 3.04417 18.487803 0 0 0
75 25 2 -0.35 20.174923 5.155346 18.302538 0 0 0
76 26 1 0.7 5.887144 14.787829 20.191694 0 0 0
77 26 2 -0.35 6.088781 13.71663 20.588524 0 0 0
78 26 2 -0.35 5.685508 15.859029 19.794863 0 0 0
79 27 1 0.7 16.145917 9.132277 6.56492 0 0 0
80 27 2 -0.35 17.046204 8.457407 6.847115 0 0 0
81 27 2 -0.35 15.24563 9.807146 6.282725 0 0 0
82 28 1 0.7 15.421337 12.394955 13.369377 0 0 0
83 28 2 -0.35 14.399932 11.850137 13.443573 0 0 0
84 28 2 -0.35 16.442742 12.939774 13.29518 0 0 0
85 29 1 0.7 18.541153 29.770906 6.900408 0 0 0
86 29 2 -0.35 18.491388 28.616997 6.792625 0 0 0
87 29 2 -0.35 18.590918 30.924815 7.00819 0 0 0
88 30 1 0.7 6.104 12.296024 3.242886 0 0 0
89 30 2 -0.35 5.503628 11.54699 2.591656 0 0 0
90 30 2 -0.35 6.704373 13.045059 3.894116 0 0 0
91 31 1 0.7 22.238725 23.14992 20.984497 0 0 0
92 31 2 -0.35 22.900329 22.312891 21.439758 0 0 0
93 31 2 -0.35 21.577121 23.986949 20.529237 0 0 0
94 32 1 0.7 10.214367 15.674853 3.22695 0 0 0
95 32 2 -0.35 10.694811 16.301325 4.076836 0 0 0
96 32 2 -0.35 9.733923 15.04838 2.377064 0 0 0
97 33 1 0.7 30.959708 7.113876 24.481437 0 0 0
98 33 2 -0.35 29.918718 7.596247 24.31039 0 0 0
99 33 2 -0.35 32.000699 6.631506 24.652483 0 0 0
100 34 1 0.7 29.026658 2.291704 11.10266 0 0 0
101 34 2 -0.35 30.054848 1.990831 11.547518 0 0 0
102 34 2 -0.35 27.998467 2.592578 10.657802 0 0 0
103 35 1 0.7 15.08464 27.514506 23.285948 0 0 0
104 35 2 -0.35 15.473833 28.404129 22.651363 0 0 0
105 35 2 -0.35 14.695446 26.624883 23.920534 0 0 0
106 36 1 0.7 13.751265 3.399239 20.351183 0 0 0
107 36 2 -0.35 14.043958 2.88952 21.351242 0 0 0
108 36 2 -0.35 13.458571 3.908957 19.351124 0 0 0
109 37 1 0.7 9.610601 28.166491 12.509323 0 0 0
110 37 2 -0.35 8.864131 29.05398 12.53665 0 0 0
111 37 2 -0.35 10.35707 27.279002 12.481996 0 0 0
112 38 1 0.7 29.048972 25.736863 29.637648 0 0 0
113 38 2 -0.35 29.244926 25.302007 28.580245 0 0 0
114 38 2 -0.35 28.853017 26.17172 30.695052 0 0 0
115 39 1 0.7 30.755956 25.622487 8.740335 0 0 0
116 39 2 -0.35 31.830352 26.037479 8.602298 0 0 0
117 39 2 -0.35 29.68156 25.207495 8.878373 0 0 0
118 40 1 0.7 26.970024 7.929016 17.272895 0 0 0
119 40 2 -0.35 25.96461 8.471958 17.472787 0 0 0
120 40 2 -0.35 27.975438 7.386075 17.073004 0 0 0
121 41 1 0.7 22.606271 8.616777 21.777887 0 0 0
122 41 2 -0.35 23.619899 9.179883 21.810575 0 0 0
123 41 2 -0.35 21.592642 8.05367 21.745199 0 0 0
124 42 1 0.7 23.231487 3.64652 11.110238 0 0 0
125 42 2 -0.35 22.077442 3.532521 11.138249 0 0 0
126 42 2 -0.35 24.385531 3.76052 11.082227 0 0 0
127 43 1 0.7 17.436407 26.39445 23.64341 0 0 0
128 43 2 -0.35 17.492177 27.301512 22.922489 0 0 0
129 43 2 -0.35 17.380637 25.487387 24.364331 0 0 0
130 44 1 0.7 20.415736 10.889059 25.105904 0 0 0
131 44 2 -0.35 20.766996 9.821857 25.394517 0 0 0
132 44 2 -0.35 20.064476 11.95626 24.817292 0 0 0
133 45 1 0.7 2.742177 11.658082 20.461223 0 0 0
134 45 2 -0.35 2.566232 12.677214 20.986593 0 0 0
135 45 2 -0.35 2.918123 10.63895 19.935853 0 0 0
136 46 1 0.7 31.467564 24.466139 2.901145 0 0 0
137 46 2 -0.35 30.942387 23.967155 3.807128 0 0 0
138 46 2 -0.35 31.992741 24.965122 1.995162 0 0 0
139 47 1 0.7 4.398316 5.310952 9.524171 0 0 0
140 47 2 -0.35 4.427996 4.591267 8.6149 0 0 0
141 47 2 -0.35 4.368635 6.030637 10.433441 0 0 0
142 48 1 0.7 5.309287 28.970353 22.220693 0 0 0
143 48 2 -0.35 5.636841 29.438029 21.210946 0 0 0
144 48 2 -0.35 4.981734 28.502677 23.230439 0 0 0
145 49 1 0.7 24.734453 29.505164 29.406394 0 0 0
146 49 2 -0.35 25.784336 29.706261 29.856846 0 0 0
147 49 2 -0.35 23.684571 29.304067 28.955943 0 0 0
148 50 1 0.7 10.049987 5.577473 19.119497 0 0 0
149 50 2 -0.35 10.258616 6.487425 19.808018 0 0 0
150 50 2 -0.35 9.841358 4.667521 18.430976 0 0 0
151 51 1 0.7 25.272408 17.946541 16.983576 0 0 0
152 51 2 -0.35 25.914649 16.985974 16.881416 0 0 0
153 51 2 -0.35 24.630167 18.907109 17.085735 0 0 0
154 52 1 0.7 3.223023 2.002496 18.937014 0 0 0
155 52 2 -0.35 4.10165 2.003707 18.179642 0 0 0
156 52 2 -0.35 2.344396 2.001286 19.694386 0 0 0
157 53 1 0.7 16.500592 14.449326 31.381569 0 0 0
158 53 2 -0.35 16.747166 13.493786 30.77186 0 0 0
159 53 2 -0.35 16.254019 15.404865 31.991279 0 0 0
160 54 1 0.7 20.612212 24.202382 17.038141 0 0 0
161 54 2 -0.35 21.054038 24.703262 17.986566 0 0 0
162 54 2 -0.35 20.170386 23.701503 16.089716 0 0 0
163 55 1 0.7 9.256782 21.902377 20.447 0 0 0
164 55 2 -0.35 8.489314 22.772199 20.448942 0 0 0
165 55 2 -0.35 10.02425 21.032555 20.445058 0 0 0
166 56 1 0.7 20.933836 15.239985 26.746804 0 0 0
167 56 2 -0.35 21.145319 14.275408 27.355464 0 0 0
168 56 2 -0.35 20.722354 16.204562 26.138144 0 0 0
169 57 1 0.7 23.882358 2.174952 23.764165 0 0 0
170 57 2 -0.35 25.029156 2.000662 23.77301 0 0 0
171 57 2 -0.35 22.735561 2.349241 23.75532 0 0 0
172 58 1 0.7 31.034821 4.754768 13.625374 0 0 0
173 58 2 -0.35 30.912678 3.641382 13.927123 0 0 0
174 58 2 -0.35 31.156965 5.868154 13.323625 0 0 0
175 59 1 0.7 12.77566 17.119542 16.568782 0 0 0
176 59 2 -0.35 12.59864 18.094544 17.171802 0 0 0
177 59 2 -0.35 12.952681 16.144539 15.965761 0 0 0
178 60 1 0.7 4.233869 14.036663 8.930264 0 0 0
179 60 2 -0.35 3.179242 14.503267 8.805199 0 0 0
180 60 2 -0.35 5.288496 13.570058 9.055329 0 0 0
181 61 1 0.7 22.844393 20.011854 19.619164 0 0 0
182 61 2 -0.35 22.511522 19.011237 20.102446 0 0 0
183 61 2 -0.35 23.177264 21.012472 19.135883 0 0 0
184 62 1 0.7 24.447112 5.657399 8.717573 0 0 0
185 62 2 -0.35 24.583745 6.809271 8.706498 0 0 0
186 62 2 -0.35 24.31048 4.505527 8.728647 0 0 0
187 63 1 0.7 2.866707 8.704677 13.114225 0 0 0
188 63 2 -0.35 2.435372 7.684227 13.45807 0 0 0
189 63 2 -0.35 3.298043 9.725128 12.770379 0 0 0
190 64 1 0.7 27.110252 13.37292 31.575723 0 0 0
191 64 2 -0.35 27.731713 12.488396 31.155005 0 0 0
192 64 2 -0.35 26.488791 14.257445 31.996441 0 0 0
193 65 1 0.7 7.066747 30.807748 19.918765 0 0 0
194 65 2 -0.35 6.382086 31.73565 19.792918 0 0 0
195 65 2 -0.35 7.751408 29.879846 20.044612 0 0 0
196 66 1 0.7 22.276533 26.744211 22.358852 0 0 0
197 66 2 -0.35 23.120527 26.836282 23.149293 0 0 0
198 66 2 -0.35 21.43254 26.65214 21.56841 0 0 0
199 67 1 0.7 18.684922 7.398662 8.896942 0 0 0
200 67 2 -0.35 19.302613 6.416807 8.892412 0 0 0
201 67 2 -0.35 18.067232 8.380516 8.901471 0 0 0
202 68 1 0.7 3.5635 23.197482 23.442405 0 0 0
203 68 2 -0.35 3.671737 24.351932 23.476043 0 0 0
204 68 2 -0.35 3.455263 22.043033 23.408766 0 0 0
205 69 1 0.7 25.193963 16.880695 19.250493 0 0 0
206 69 2 -0.35 24.129195 16.805425 18.796397 0 0 0
207 69 2 -0.35 26.258731 16.955966 19.70459 0 0 0
208 70 1 0.7 11.24845 3.371833 16.927448 0 0 0
209 70 2 -0.35 11.28028 2.516935 17.710861 0 0 0
210 70 2 -0.35 11.21662 4.226731 16.144034 0 0 0
211 71 1 0.7 16.806728 5.688303 8.337985 0 0 0
212 71 2 -0.35 17.004937 4.711866 7.743944 0 0 0
213 71 2 -0.35 16.60852 6.664739 8.932027 0 0 0
214 72 1 0.7 29.597498 19.594954 14.018989 0 0 0
215 72 2 -0.35 29.343323 20.715373 14.179162 0 0 0
216 72 2 -0.35 29.851672 18.474534 13.858816 0 0 0
217 73 1 0.7 14.672038 8.849044 9.088544 0 0 0
218 73 2 -0.35 13.5552 8.98202 9.372428 0 0 0
219 73 2 -0.35 15.788876 8.716069 8.80466 0 0 0
220 74 1 0.7 27.799841 28.806135 17.990209 0 0 0
221 74 2 -0.35 26.93086 29.105752 17.282606 0 0 0
222 74 2 -0.35 28.668822 28.506518 18.697812 0 0 0
223 75 1 0.7 14.481016 17.210722 19.506393 0 0 0
224 75 2 -0.35 13.828611 17.38743 20.449125 0 0 0
225 75 2 -0.35 15.133421 17.034015 18.563662 0 0 0
226 76 1 0.7 13.090201 5.262162 4.215199 0 0 0
227 76 2 -0.35 12.308683 4.407709 4.284041 0 0 0
228 76 2 -0.35 13.871719 6.116615 4.146356 0 0 0
229 77 1 0.7 26.531268 7.202071 13.315523 0 0 0
230 77 2 -0.35 25.626908 7.927324 13.273802 0 0 0
231 77 2 -0.35 27.435628 6.476817 13.357244 0 0 0
232 78 1 0.7 21.824639 19.653448 25.050154 0 0 0
233 78 2 -0.35 21.272071 20.641852 25.3018 0 0 0
234 78 2 -0.35 22.377206 18.665044 24.798507 0 0 0
235 79 1 0.7 20.605596 3.129823 24.65781 0 0 0
236 79 2 -0.35 20.533765 3.742556 23.675466 0 0 0
237 79 2 -0.35 20.677428 2.51709 25.640153 0 0 0
238 80 1 0.7 11.754438 14.310193 27.202298 0 0 0
239 80 2 -0.35 11.887771 13.211902 26.853617 0 0 0
240 80 2 -0.35 11.621105 15.408484 27.55098 0 0 0
241 81 1 0.7 6.741039 11.77603 13.875828 0 0 0
242 81 2 -0.35 5.705761 11.298995 13.6608 0 0 0
243 81 2 -0.35 7.776317 12.253065 14.090855 0 0 0
244 82 1 0.7 8.652463 22.250212 27.11268 0 0 0
245 82 2 -0.35 9.386922 23.147872 27.13208 0 0 0
246 82 2 -0.35 7.918003 21.352552 27.093279 0 0 0
247 83 1 0.7 26.460137 4.631905 3.111509 0 0 0
248 83 2 -0.35 26.762218 4.606664 4.231201 0 0 0
249 83 2 -0.35 26.158056 4.657146 1.991817 0 0 0
250 84 1 0.7 14.930282 21.226639 29.214212 0 0 0
251 84 2 -0.35 15.13627 21.901727 30.134769 0 0 0
252 84 2 -0.35 14.724295 20.551552 28.293654 0 0 0
253 85 1 0.7 13.980537 16.732837 26.06235 0 0 0
254 85 2 -0.35 13.698268 16.013076 25.197557 0 0 0
255 85 2 -0.35 14.262806 17.452599 26.927143 0 0 0
256 86 1 0.7 21.444123 9.169696 31.900254 0 0 0
257 86 2 -0.35 21.641196 8.029679 31.984655 0 0 0
258 86 2 -0.35 21.24705 10.309713 31.815853 0 0 0
259 87 1 0.7 24.414432 25.076772 22.806935 0 0 0
260 87 2 -0.35 24.180222 24.754291 21.717554 0 0 0
261 87 2 -0.35 24.648641 25.399253 23.896317 0 0 0
262 88 1 0.7 19.219485 12.111712 21.558499 0 0 0
263 88 2 -0.35 19.510631 12.420749 22.638004 0 0 0
264 88 2 -0.35 18.928339 11.802675 20.478995 0 0 0
265 89 1 0.7 27.708503 4.845051 21.941354 0 0 0
266 89 2 -0.35 26.611008 5.220688 21.941958 0 0 0
267 89 2 -0.35 28.805999 4.469414 21.94075 0 0 0
268 90 1 0.7 19.479272 9.070254 28.917904 0 0 0
269 90 2 -0.35 19.923893 8.203451 29.547637 0 0 0
270 90 2 -0.35 19.03465 9.937057 28.288171 0 0 0
271 91 1 0.7 18.144347 19.640362 17.314854 0 0 0
272 91 2 -0.35 18.396748 18.658228 17.878153 0 0 0
273 91 2 -0.35 17.891945 20.622496 16.751556 0 0 0
274 92 1 0.7 9.431837 22.386269 24.927282 0 0 0
275 92 2 -0.35 9.438686 23.540021 24.807243 0 0 0
276 92 2 -0.35 9.424988 21.232517 25.04732 0 0 0
277 93 1 0.7 15.600222 15.311462 6.517919 0 0 0
278 93 2 -0.35 14.498593 15.139484 6.837978 0 0 0
279 93 2 -0.35 16.701851 15.483439 6.197861 0 0 0
280 94 1 0.7 2.002886 17.417981 6.612895 0 0 0
281 94 2 -0.35 2.004906 16.308521 6.951559 0 0 0
282 94 2 -0.35 2.000866 18.527442 6.27423 0 0 0
283 95 1 0.7 30.540745 21.000972 10.46651 0 0 0
284 95 2 -0.35 31.61898 20.573239 10.473737 0 0 0
285 95 2 -0.35 29.46251 21.428706 10.459282 0 0 0
286 96 1 0.7 10.425495 22.300259 18.197801 0 0 0
287 96 2 -0.35 11.414491 21.72486 18.007008 0 0 0
288 96 2 -0.35 9.436498 22.875658 18.388595 0 0 0
289 97 1 0.7 21.979229 21.883932 9.228854 0 0 0
290 97 2 -0.35 22.03986 20.752169 8.981798 0 0 0
291 97 2 -0.35 21.918599 23.015695 9.47591 0 0 0
292 98 1 0.7 5.270595 20.823893 31.374504 0 0 0
293 98 2 -0.35 4.224734 20.329154 31.290783 0 0 0
294 98 2 -0.35 6.316455 21.318633 31.458224 0 0 0
295 99 1 0.7 12.76956 30.682681 19.656561 0 0 0
296 99 2 -0.35 11.843969 30.2834 20.230546 0 0 0
297 99 2 -0.35 13.69515 31.081961 19.082577 0 0 0
298 100 1 0.7 25.610153 20.906897 22.846906 0 0 0
299 100 2 -0.35 24.835868 21.763132 22.733129 0 0 0
300 100 2 -0.35 26.384437 20.050662 22.960682 0 0 0
301 101 1 0.7 6.629886 21.558331 22.233799 0 0 0
302 101 2 -0.35 5.641588 21.925078 22.71791 0 0 0
303 101 2 -0.35 7.618184 21.191583 21.749688 0 0 0
304 102 1 0.7 3.09677 5.417914 24.051156 0 0 0
305 102 2 -0.35 3.038346 6.377896 23.402603 0 0 0
306 102 2 -0.35 3.155194 4.457932 24.699709 0 0 0
307 103 1 0.7 5.804992 17.198106 9.746308 0 0 0
308 103 2 -0.35 5.033983 17.807167 10.362902 0 0 0
309 103 2 -0.35 6.576001 16.589044 9.129714 0 0 0
310 104 1 0.7 8.562993 19.929779 6.430057 0 0 0
311 104 2 -0.35 9.661987 20.276537 6.297505 0 0 0
312 104 2 -0.35 7.463998 19.583021 6.56261 0 0 0
313 105 1 0.7 10.121757 13.013521 19.647895 0 0 0
314 105 2 -0.35 10.473014 13.860987 20.357839 0 0 0
315 105 2 -0.35 9.7705 12.166056 18.937951 0 0 0
316 106 1 0.7 25.832065 23.660917 8.458079 0 0 0
317 106 2 -0.35 26.487973 24.589792 8.228784 0 0 0
318 106 2 -0.35 25.176157 22.732042 8.687374 0 0 0
319 107 1 0.7 22.149221 8.405752 18.463957 0 0 0
320 107 2 -0.35 23.200246 8.873654 18.315591 0 0 0
321 107 2 -0.35 21.098195 7.937849 18.612322 0 0 0
322 108 1 0.7 29.971223 9.403704 31.095076 0 0 0
323 108 2 -0.35 29.245418 9.423459 30.190411 0 0 0
324 108 2 -0.35 30.697027 9.383949 31.99974 0 0 0
325 109 1 0.7 12.542404 13.702603 30.520629 0 0 0
326 109 2 -0.35 12.37134 13.65929 31.667129 0 0 0
327 109 2 -0.35 12.713469 13.745917 29.37413 0 0 0
328 110 1 0.7 31.763412 16.067947 5.742354 0 0 0
329 110 2 -0.35 31.988406 15.36894 4.844375 0 0 0
330 110 2 -0.35 31.538418 16.766954 6.640334 0 0 0
331 111 1 0.7 6.00536 12.812581 24.384182 0 0 0
332 111 2 -0.35 4.882884 12.526208 24.444494 0 0 0
333 111 2 -0.35 7.127836 13.098953 24.323871 0 0 0
334 112 1 0.7 18.645285 11.941593 12.435399 0 0 0
335 112 2 -0.35 18.586014 10.934278 11.863207 0 0 0
336 112 2 -0.35 18.704556 12.948909 13.00759 0 0 0
337 113 1 0.7 11.656984 29.396501 26.541069 0 0 0
338 113 2 -0.35 10.750781 30.113132 26.645166 0 0 0
339 113 2 -0.35 12.563187 28.67987 26.436971 0 0 0
340 114 1 0.7 11.076676 26.238793 9.922816 0 0 0
341 114 2 -0.35 10.647644 25.217598 9.5783 0 0 0
342 114 2 -0.35 11.505708 27.259988 10.267333 0 0 0
343 115 1 0.7 16.8369 12.457084 9.983825 0 0 0
344 115 2 -0.35 17.743785 11.837309 9.610944 0 0 0
345 115 2 -0.35 15.930016 13.076859 10.356706 0 0 0
346 116 1 0.7 21.568166 28.773807 20.093479 0 0 0
347 116 2 -0.35 22.605696 28.927433 19.59797 0 0 0
348 116 2 -0.35 20.530635 28.620182 20.588989 0 0 0
349 117 1 0.7 14.085137 30.843771 14.549161 0 0 0
350 117 2 -0.35 14.767496 31.077444 13.640654 0 0 0
351 117 2 -0.35 13.402778 30.610098 15.457667 0 0 0
352 118 1 0.7 26.528325 18.091742 30.832911 0 0 0
353 118 2 -0.35 25.605224 17.643033 31.373415 0 0 0
354 118 2 -0.35 27.451426 18.540451 30.292407 0 0 0
355 119 1 0.7 12.289032 26.172234 2.599734 0 0 0
356 119 2 -0.35 11.415236 26.645394 2.001236 0 0 0
357 119 2 -0.35 13.162828 25.699073 3.198232 0 0 0
358 120 1 0.7 9.588981 26.059931 7.842664 0 0 0
359 120 2 -0.35 8.748784 26.354557 8.586213 0 0 0
360 120 2 -0.35 10.429177 25.765306 7.099114 0 0 0
361 121 1 0.7 29.244532 16.062653 7.871332 0 0 0
362 121 2 -0.35 28.896047 15.057592 7.408718 0 0 0
363 121 2 -0.35 29.593017 17.067714 8.333945 0 0 0
364 122 1 0.7 15.697818 26.678395 10.204473 0 0 0
365 122 2 -0.35 16.329217 26.551512 9.239674 0 0 0
366 122 2 -0.35 15.06642 26.805278 11.169272 0 0 0
367 123 1 0.7 16.12953 3.620126 11.43355 0 0 0
368 123 2 -0.35 16.662026 2.959484 12.224498 0 0 0
369 123 2 -0.35 15.597033 4.280768 10.642602 0 0 0
370 124 1 0.7 11.451232 20.118807 22.873061 0 0 0
371 124 2 -0.35 12.052511 20.582652 23.749937 0 0 0
372 124 2 -0.35 10.849954 19.654962 21.996184 0 0 0
373 125 1 0.7 12.806371 20.783817 11.286699 0 0 0
374 125 2 -0.35 12.485309 21.014942 10.19624 0 0 0
375 125 2 -0.35 13.127433 20.552693 12.377157 0 0 0
376 126 1 0.7 15.891536 18.874606 19.793411 0 0 0
377 126 2 -0.35 16.381839 18.85667 18.742278 0 0 0
378 126 2 -0.35 15.401233 18.892542 20.844545 0 0 0
379 127 1 0.7 13.86889 21.127761 20.862079 0 0 0
380 127 2 -0.35 14.844872 21.233569 20.244127 0 0 0
381 127 2 -0.35 12.892909 21.021953 21.480031 0 0 0
382 128 1 0.7 21.93757 15.424512 21.030656 0 0 0
383 128 2 -0.35 22.437931 14.380446 20.958786 0 0 0
384 128 2 -0.35 21.43721 16.468578 21.102527 0 0 0
385 129 1 0.7 16.312266 5.676619 25.261433 0 0 0
386 129 2 -0.35 16.231292 6.763646 25.65819 0 0 0
387 129 2 -0.35 16.39324 4.589592 24.864676 0 0 0
388 130 1 0.7 8.454762 19.317592 22.860896 0 0 0
389 130 2 -0.35 7.60679 19.027422 22.124455 0 0 0
390 130 2 -0.35 9.302734 19.607762 23.597337 0 0 0
391 131 1 0.7 29.868834 26.365905 2.70721 0 0 0
392 131 2 -0.35 30.815907 26.789489 2.188336 0 0 0
393 131 2 -0.35 28.921761 25.942321 3.226084 0 0 0
394 132 1 0.7 16.350638 12.18087 22.521481 0 0 0
395 132 2 -0.35 15.327765 12.338114 21.997452 0 0 0
396 132 2 -0.35 17.37351 12.023626 23.04551 0 0 0
397 133 1 0.7 20.102152 17.759292 18.986343 0 0 0
398 133 2 -0.35 20.625165 18.794671 18.993283 0 0 0
399 133 2 -0.35 19.57914 16.723912 18.979403 0 0 0
400 134 1 0.7 8.21141 27.577729 3.358084 0 0 0
401 134 2 -0.35 8.171881 28.694019 3.671028 0 0 0
402 134 2 -0.35 8.250938 26.461439 3.04514 0 0 0
403 135 1 0.7 28.865572 10.13928 10.065737 0 0 0
404 135 2 -0.35 29.685522 10.549246 10.776519 0 0 0
405 135 2 -0.35 28.045622 9.729315 9.354956 0 0 0
406 136 1 0.7 7.660553 7.724507 5.517694 0 0 0
407 136 2 -0.35 8.529003 7.729973 6.286696 0 0 0
408 136 2 -0.35 6.792103 7.71904 4.748691 0 0 0
409 137 1 0.7 19.37456 16.31765 28.752826 0 0 0
410 137 2 -0.35 18.618151 15.683924 29.36261 0 0 0
411 137 2 -0.35 20.130968 16.951377 28.143041 0 0 0
412 138 1 0.7 22.045029 14.408606 4.831373 0 0 0
413 138 2 -0.35 22.523978 13.669057 5.585877 0 0 0
414 138 2 -0.35 21.566081 15.148155 4.07687 0 0 0
415 139 1 0.7 12.969182 24.572409 9.691611 0 0 0
416 139 2 -0.35 13.718166 25.456601 9.638452 0 0 0
417 139 2 -0.35 12.220198 23.688216 9.744769 0 0 0
418 140 1 0.7 9.055695 26.430561 23.870122 0 0 0
419 140 2 -0.35 8.204014 25.867192 24.420444 0 0 0
420 140 2 -0.35 9.907377 26.99393 23.319801 0 0 0
421 141 1 0.7 16.653575 7.113321 31.454457 0 0 0
422 141 2 -0.35 17.569018 7.825612 31.468723 0 0 0
423 141 2 -0.35 15.738131 6.401029 31.440192 0 0 0
424 142 1 0.7 15.520986 30.909042 26.419259 0 0 0
425 142 2 -0.35 15.171585 29.926223 26.926789 0 0 0
426 142 2 -0.35 15.870387 31.89186 25.911729 0 0 0
427 143 1 0.7 3.24727 18.749497 29.072687 0 0 0
428 143 2 -0.35 3.816267 17.838172 28.635273 0 0 0
429 143 2 -0.35 2.678273 19.660821 29.510101 0 0 0
430 144 1 0.7 21.884114 6.638168 10.653788 0 0 0
431 144 2 -0.35 21.220557 6.986193 11.539322 0 0 0
432 144 2 -0.35 22.547671 6.290143 9.768254 0 0 0
433 145 1 0.7 3.85726 29.903133 4.506131 0 0 0
434 145 2 -0.35 3.299894 29.001004 4.035911 0 0 0
435 145 2 -0.35 4.414625 30.805262 4.976352 0 0 0
436 146 1 0.7 19.59587 4.438477 14.450591 0 0 0
437 146 2 -0.35 18.467933 4.217962 14.293328 0 0 0
438 146 2 -0.35 20.723807 4.658992 14.607853 0 0 0
439 147 1 0.7 14.967933 11.031046 9.703792 0 0 0
440 147 2 -0.35 14.401536 11.075118 10.715154 0 0 0
441 147 2 -0.35 15.534329 10.986973 8.69243 0 0 0
442 148 1 0.7 11.775283 17.656657 13.428291 0 0 0
443 148 2 -0.35 12.251863 18.40585 14.174736 0 0 0
444 148 2 -0.35 11.298702 16.907464 12.681846 0 0 0
445 149 1 0.7 6.918438 20.47677 13.387925 0 0 0
446 149 2 -0.35 6.858117 21.633762 13.33022 0 0 0
447 149 2 -0.35 6.97876 19.319777 13.44563 0 0 0
448 150 1 0.7 25.466599 14.733737 4.764018 0 0 0
449 150 2 -0.35 26.275868 15.171495 4.057582 0 0 0
450 150 2 -0.35 24.65733 14.295979 5.470454 0 0 0
451 151 1 0.7 12.26439 18.649472 6.644603 0 0 0
452 151 2 -0.35 11.323197 17.982349 6.765855 0 0 0
453 151 2 -0.35 13.205583 19.316595 6.523351 0 0 0
454 152 1 0.7 22.7859 12.372225 10.544462 0 0 0
455 152 2 -0.35 22.196315 13.369203 10.607892 0 0 0
456 152 2 -0.35 23.375485 11.375246 10.481032 0 0 0
457 153 1 0.7 9.22639 12.213544 23.905874 0 0 0
458 153 2 -0.35 9.513669 13.296257 24.207212 0 0 0
459 153 2 -0.35 8.939111 11.130832 23.604536 0 0 0
460 154 1 0.7 19.113842 29.413295 31.751735 0 0 0
461 154 2 -0.35 20.225108 29.639257 31.507546 0 0 0
462 154 2 -0.35 18.002576 29.187334 31.995925 0 0 0
463 155 1 0.7 31.350462 14.481486 18.710114 0 0 0
464 155 2 -0.35 31.187884 13.429776 19.171715 0 0 0
465 155 2 -0.35 31.513041 15.533195 18.248513 0 0 0
466 156 1 0.7 12.759959 30.834131 9.634189 0 0 0
467 156 2 -0.35 13.530615 30.690373 10.489188 0 0 0
468 156 2 -0.35 11.989304 30.977889 8.779189 0 0 0
469 157 1 0.7 19.914667 13.960848 18.284223 0 0 0
470 157 2 -0.35 18.841838 13.727128 17.910041 0 0 0
471 157 2 -0.35 20.987497 14.194567 18.658404 0 0 0
472 158 1 0.7 8.641779 22.329514 11.153495 0 0 0
473 158 2 -0.35 8.202967 23.402852 11.122014 0 0 0
474 158 2 -0.35 9.080591 21.256177 11.184976 0 0 0
475 159 1 0.7 10.840298 16.48564 30.429723 0 0 0
476 159 2 -0.35 11.523752 15.612724 30.08839 0 0 0
477 159 2 -0.35 10.156845 17.358557 30.771056 0 0 0
478 160 1 0.7 2.485082 19.552715 10.32255 0 0 0
479 160 2 -0.35 2.002417 19.291505 9.30059 0 0 0
480 160 2 -0.35 2.967748 19.813925 11.344511 0 0 0
481 161 1 0.7 9.572642 30.814099 15.590847 0 0 0
482 161 2 -0.35 8.454352 31.121652 15.611762 0 0 0
483 161 2 -0.35 10.690932 30.506545 15.569932 0 0 0
484 162 1 0.7 29.715166 11.067583 19.832827 0 0 0
485 162 2 -0.35 29.284272 11.344853 20.873525 0 0 0
486 162 2 -0.35 30.14606 10.790312 18.79213 0 0 0
487 163 1 0.7 3.893314 16.260814 15.883717 0 0 0
488 163 2 -0.35 2.964823 15.93999 15.266808 0 0 0
489 163 2 -0.35 4.821805 16.581638 16.500625 0 0 0
490 164 1 0.7 6.517586 25.960007 15.373716 0 0 0
491 164 2 -0.35 5.626723 25.516775 14.777471 0 0 0
492 164 2 -0.35 7.408449 26.40324 15.96996 0 0 0
493 165 1 0.7 16.36946 29.283854 14.310563 0 0 0
494 165 2 -0.35 17.088454 29.499152 15.195038 0 0 0
495 165 2 -0.35 15.650466 29.068556 13.426089 0 0 0
496 166 1 0.7 23.407851 27.391006 2.346544 0 0 0
497 166 2 -0.35 24.062716 28.288555 2.679944 0 0 0
498 166 2 -0.35 22.752985 26.493456 2.013143 0 0 0
499 167 1 0.7 30.075227 28.277801 3.845824 0 0 0
500 167 2 -0.35 28.980777 28.533197 3.558503 0 0 0
501 167 2 -0.35 31.169676 28.022406 4.133144 0 0 0
502 168 1 0.7 9.467496 30.911648 18.485084 0 0 0
503 168 2 -0.35 9.273055 31.995084 18.11908 0 0 0
504 168 2 -0.35 9.661936 29.828212 18.851088 0 0 0
505 169 1 0.7 7.699337 18.423725 18.022946 0 0 0
506 169 2 -0.35 7.835375 17.962527 19.078593 0 0 0
507 169 2 -0.35 7.563299 18.884923 16.967299 0 0 0
508 170 1 0.7 15.446137 15.077457 29.562106 0 0 0
509 170 2 -0.35 14.634016 14.597 30.236806 0 0 0
510 170 2 -0.35 16.258258 15.557914 28.887406 0 0 0
511 171 1 0.7 18.875671 5.669975 20.65578 0 0 0
512 171 2 -0.35 19.290937 4.589202 20.727074 0 0 0
513 171 2 -0.35 18.460404 6.750749 20.584487 0 0 0
514 172 1 0.7 17.665735 23.087086 17.596042 0 0 0
515 172 2 -0.35 18.805807 22.873008 17.593307 0 0 0
516 172 2 -0.35 16.525664 23.301164 17.598778 0 0 0
517 173 1 0.7 6.451641 27.993371 9.590079 0 0 0
518 173 2 -0.35 6.925091 28.916115 9.070476 0 0 0
519 173 2 -0.35 5.97819 27.070627 10.109682 0 0 0
520 174 1 0.7 30.953253 23.050994 25.401611 0 0 0
521 174 2 -0.35 32.011367 23.480993 25.604332 0 0 0
522 174 2 -0.35 29.89514 22.620994 25.198889 0 0 0
523 175 1 0.7 26.584765 20.625874 12.733806 0 0 0
524 175 2 -0.35 25.607907 20.032468 12.535773 0 0 0
525 175 2 -0.35 27.561624 21.219281 12.931838 0 0 0
526 176 1 0.7 4.269384 27.052138 31.588157 0 0 0
527 176 2 -0.35 5.351336 27.469824 31.565401 0 0 0
528 176 2 -0.35 3.187431 26.634453 31.610913 0 0 0
529 177 1 0.7 22.933493 29.993927 21.878359 0 0 0
530 177 2 -0.35 23.173691 28.935737 22.288406 0 0 0
531 177 2 -0.35 22.693295 31.052117 21.468311 0 0 0
532 178 1 0.7 13.005602 16.585988 31.995149 0 0 0
533 178 2 -0.35 13.846191 15.786608 31.995775 0 0 0
534 178 2 -0.35 12.165012 17.385368 31.994523 0 0 0
535 179 1 0.7 17.089527 20.78263 6.90135 0 0 0
536 179 2 -0.35 18.170618 20.715838 6.48616 0 0 0
537 179 2 -0.35 16.008437 20.849422 7.316539 0 0 0
538 180 1 0.7 21.519196 7.191272 16.187847 0 0 0
539 180 2 -0.35 20.939726 6.186847 16.157128 0 0 0
540 180 2 -0.35 22.098666 8.195697 16.218566 0 0 0
541 181 1 0.7 13.038695 3.434927 2.450681 0 0 0
542 181 2 -0.35 11.990528 3.227851 1.998943 0 0 0
543 181 2 -0.35 14.086861 3.642002 2.902419 0 0 0
544 182 1 0.7 8.088969 23.519858 13.948776 0 0 0
545 182 2 -0.35 7.407796 24.454611 14.037318 0 0 0
546 182 2 -0.35 8.770143 22.585105 13.860234 0 0 0
547 183 1 0.7 26.909058 17.438946 6.262332 0 0 0
548 183 2 -0.35 27.963071 17.159014 5.866991 0 0 0
549 183 2 -0.35 25.855044 17.718877 6.657673 0 0 0
550 184 1 0.7 7.747526 5.146699 22.068909 0 0 0
551 184 2 -0.35 7.37775 4.057083 22.215893 0 0 0
552 184 2 -0.35 8.117302 6.236314 21.921925 0 0 0
553 185 1 0.7 12.093647 25.815105 16.017106 0 0 0
554 185 2 -0.35 12.107038 25.669383 17.167839 0 0 0
555 185 2 -0.35 12.080256 25.960827 14.866374 0 0 0
556 186 1 0.7 18.282919 21.921785 9.330516 0 0 0
557 186 2 -0.35 18.922878 20.981831 9.101301 0 0 0
558 186 2 -0.35 17.64296 22.861739 9.55973 0 0 0
559 187 1 0.7 21.281991 11.059004 22.264646 0 0 0
560 187 2 -0.35 20.545034 10.163629 22.292902 0 0 0
561 187 2 -0.35 22.018948 11.954379 22.236391 0 0 0
562 188 1 0.7 14.05249 11.623469 18.872142 0 0 0
563 188 2 -0.35 13.391665 12.565578 18.726051 0 0 0
564 188 2 -0.35 14.713314 10.68136 19.018232 0 0 0
565 189 1 0.7 12.733698 19.710974 2.768666 0 0 0
566 189 2 -0.35 12.583575 20.569088 3.534632 0 0 0
567 189 2 -0.35 12.883821 18.85286 2.0027 0 0 0
568 190 1 0.7 19.242256 19.294166 29.572678 0 0 0
569 190 2 -0.35 18.883295 20.214706 28.964933 0 0 0
570 190 2 -0.35 19.601216 18.373626 30.180422 0 0 0
571 191 1 0.7 4.678674 7.738273 29.489865 0 0 0
572 191 2 -0.35 3.591567 8.050922 29.746864 0 0 0
573 191 2 -0.35 5.765781 7.425625 29.232867 0 0 0
574 192 1 0.7 23.280654 9.369744 24.084212 0 0 0
575 192 2 -0.35 24.240796 10.020673 24.079933 0 0 0
576 192 2 -0.35 22.320512 8.718815 24.088491 0 0 0
577 193 1 0.7 17.104565 19.00049 29.192982 0 0 0
578 193 2 -0.35 17.427011 17.941262 28.847056 0 0 0
579 193 2 -0.35 16.782119 20.059718 29.538907 0 0 0
580 194 1 0.7 20.174772 3.498369 7.039423 0 0 0
581 194 2 -0.35 20.306815 4.128335 6.07438 0 0 0
582 194 2 -0.35 20.042729 2.868404 8.004467 0 0 0
583 195 1 0.7 24.436514 25.827774 12.013272 0 0 0
584 195 2 -0.35 24.972414 26.486263 12.803717 0 0 0
585 195 2 -0.35 23.900614 25.169285 11.222827 0 0 0
586 196 1 0.7 12.507017 14.392826 4.417876 0 0 0
587 196 2 -0.35 12.732423 14.527475 3.287981 0 0 0
588 196 2 -0.35 12.281611 14.258176 5.54777 0 0 0
589 197 1 0.7 16.160574 13.52234 15.849689 0 0 0
590 197 2 -0.35 15.316478 13.772147 15.094243 0 0 0
591 197 2 -0.35 17.00467 13.272532 16.605135 0 0 0
592 198 1 0.7 22.060326 16.541415 2.447821 0 0 0
593 198 2 -0.35 22.327814 15.504164 2.002668 0 0 0
594 198 2 -0.35 21.792838 17.578665 2.892975 0 0 0
595 199 1 0.7 18.967627 31.508001 9.985744 0 0 0
596 199 2 -0.35 17.819596 31.663847 9.927977 0 0 0
597 199 2 -0.35 20.115658 31.352154 10.043511 0 0 0
598 200 1 0.7 8.598455 18.748145 25.849192 0 0 0
599 200 2 -0.35 9.453069 18.067828 26.23958 0 0 0
600 200 2 -0.35 7.743841 19.428463 25.458804 0 0 0