ITEM: TIMESTEP
0
ITEM: NUMBER OF ATOMS
600
ITEM: BOX BOUNDS pp pp pp
0.0000000000000000e+00 3.6000000000000000e+01
0.0000000000000000e+00 3.6000000000000000e+01
0.0000000000000000e+00 3.6000000000000000e+01
ITEM: ATOMS id type xu yu zu
155 2 39.004 -29.3895 5.37089
154 1 40.0275 -29.4678 4.83057
156 2 41.051 -29.546 4.29026
287 2 5.4604 -34.6694 0.0545191
471 2 6.20858 37.0549 -31.2222
286 1 5.69702 -33.8527 0.843584
288 2 5.93365 -33.0361 1.63265
470 2 4.71707 38.1163 -29.797
469 1 5.46283 37.5856 -30.5096
170 2 2.04548 -34.1221 3.87798
169 1 0.986882 -34.595 3.91512
503 2 5.87603 7.89936 43.0825
502 1 6.04006 8.95169 42.6228
235 1 0.33609 2.24647 36.4264
142 1 44.4193 8.97796 -34.883
236 2 0.873152 1.45423 37.0818
143 2 44.0483 8.15885 -35.6158
47 2 38.9007 7.3137 -27.4454
48 2 36.9368 8.49286 -27.0781
46 1 37.9187 7.90328 -27.2618
233 2 12.7802 3.60251 2.51163
496 1 -24.7904 3.94017 41.1754
498 2 -25.2478 2.99081 41.6603
497 2 -24.333 4.88952 40.6905
333 2 -23.2005 8.09783 40.1979
232 1 13.4934 4.35249 1.98769
234 2 14.2066 5.10247 1.46375
332 2 -23.8727 8.85298 42.2861
331 1 -23.5366 8.47541 41.242
365 2 16.9309 4.40582 8.62146
504 2 6.20409 10.004 42.1631
383 2 1.84931 12.5625 43.4436
435 2 -30.6277 84.1611 1.91049
382 1 1.36183 13.4808 43.9581
476 2 6.94322 53.0491 -27.1277
434 2 -31.4251 85.9264 0.633665
433 1 -31.0264 85.0438 1.27208
144 2 44.7903 9.79707 -34.1502
384 2 0.874352 14.3991 44.4726
128 2 48.5862 -23.5725 5.02341
129 2 48.9444 -22.54 2.97696
127 1 48.7653 -23.0563 4.00019
219 2 -19.2445 15.2587 37.118
217 1 -19.3028 14.5634 38.0447
218 2 -19.3611 13.8682 38.9715
106 1 16.2953 12.1464 43.3014
108 2 15.4607 12.9475 43.386
107 2 17.13 11.3453 43.2168
571 1 39.975 42.7762 85.5194
554 2 1.48738 4.44323 49.0248
553 1 1.25282 4.97258 48.0196
555 2 1.01827 5.50193 47.0144
572 2 39.3284 43.2707 84.693
573 2 40.6216 42.2816 86.3458
60 2 5.82249 4.95237 47.0969
58 1 5.8027 4.01436 46.4148
59 2 5.78292 3.07635 45.7326
35 2 37.9388 73.1178 49.1421
34 1 36.9407 73.076 49.7317
321 2 17.6923 78.555 17.7342
511 1 48.1399 0.115391 15.2521
512 2 49.2919 0.128371 15.1168
588 2 48.9489 36.8921 48.1148
576 2 81.41 41.8949 49.8117
230 2 14.168 3.2035 52.3378
229 1 15.1219 3.2976 52.9911
231 2 16.0759 3.3917 53.6443
366 2 15.0434 3.75399 9.80259
574 1 81.4718 41.0286 50.5806
364 1 15.9872 4.0799 9.21203
575 2 81.5337 40.1622 51.3495
586 1 48.3398 36.3008 47.3242
513 2 46.9879 0.102412 15.3875
510 2 8.07921 -19.8105 53.1674
567 2 4.63553 -24.5186 12.92
269 2 7.72085 14.9483 13.0262
565 1 5.62168 -24.5369 13.5305
508 1 6.95703 -19.5349 53.0659
566 2 6.60782 -24.5552 14.1411
475 1 6.11926 53.7331 -26.6817
270 2 6.75213 14.3449 15.0461
268 1 7.23649 14.6466 14.0361
509 2 5.83484 -19.2592 52.9643
386 2 80.8337 -18.7851 -21.6808
560 2 13.4454 13.1579 -18.7698
561 2 11.7216 11.8212 -19.56
387 2 82.5292 -20.3148 -21.2712
559 1 12.5835 12.4895 -19.1649
385 1 81.6815 -19.55 -21.476
351 2 -23.9883 46.8252 -22.6767
349 1 -24.8224 46.1657 -22.2131
350 2 -25.6564 45.5061 -21.7495
298 1 76.0903 42.6269 -10.3767
299 2 76.9064 43.1683 -9.75501
223 1 5.56097 4.81282 20.9421
300 2 75.2742 42.0855 -10.9983
402 2 36.5443 41.9591 -50.522
224 2 5.11442 3.95941 21.5885
225 2 6.00752 5.66622 20.2956
596 2 5.7664 0.346484 -12.0552
304 1 -69.9523 37.9718 -11.5083
305 2 -69.6302 36.8637 -11.6271
45 2 8.6688 0.0565992 55.555
306 2 -70.2744 39.0798 -11.3896
372 2 45.8396 39.2893 22.0281
320 2 15.9596 78.8918 19.2398
371 2 46.8506 37.8745 20.4924
370 1 46.3451 38.5819 21.2602
487 1 -22.8725 42.155 -11.9435
489 2 -23.2398 41.1866 -12.4659
488 2 -22.5053 43.1234 -11.421
569 2 12.8324 -28.7588 -17.3707
319 1 16.826 78.7234 18.487
568 1 12.3185 -28.9997 -16.359
570 2 11.8046 -29.2406 -15.3473
314 2 36.2996 48.8761 62.0709
517 1 36.2073 16.5079 -12.5094
313 1 36.2343 48.1104 62.9397
61 1 2.18802 17.2464 19.9464
63 2 3.04932 16.5067 19.7086
519 2 36.9091 16.202 -13.3809
540 2 44.1211 10.6869 61.1525
62 2 1.32672 17.9862 20.1843
534 2 -21.2331 15.8029 56.6146
532 1 -21.6729 16.5279 57.4061
451 1 47.2909 -22.3824 60.8163
453 2 47.1399 -21.8283 59.8085
340 1 13.0767 53.2901 25.2658
342 2 12.1744 52.5648 25.3396
452 2 47.442 -22.9365 61.8242
539 2 46.3465 10.1475 60.7795
533 2 -22.1127 17.2528 58.1977
538 1 45.2338 10.4172 60.966
344 2 7.24802 38.2956 27.454
343 1 8.3664 38.1699 27.7351
600 2 41.4297 44.6778 -1.30027
345 2 9.48478 38.0442 28.0162
26 2 13.1862 6.46822 34.5152
27 2 14.8232 5.38704 33.2768
25 1 14.0047 5.92763 33.896
309 2 15.3805 38.2596 68.8984
338 2 45.4828 5.77744 -8.06198
337 1 46.4841 5.22479 -7.86854
339 2 47.4855 4.67215 -7.6751
307 1 14.4059 38.529 69.4669
308 2 13.4313 38.7985 70.0353
599 2 41.8749 46.8651 -0.668023
598 1 41.6523 45.7715 -0.984148
290 2 7.6365 10.6861 64.695
291 2 5.65595 11.8723 64.4656
196 1 6.75028 50.9902 -41.0418
197 2 7.88463 50.8051 -40.885
198 2 5.61593 51.1753 -41.1987
289 1 6.64623 11.2792 64.5803
22 1 8.4545 -21.4581 -0.354516
315 2 36.169 47.3446 63.8086
23 2 7.43574 -20.9972 -0.0458756
273 2 52.623 -21.8078 29.8187
24 2 9.47326 -21.919 -0.663156
271 1 51.7422 -21.057 29.8972
183 2 -18.7682 17.4937 68.6373
272 2 50.8614 -20.3063 29.9756
19 1 44.6133 -51.7166 7.26352
530 2 40.3182 24.7133 -33.0838
20 2 43.7122 -52.4467 7.23934
529 1 39.2447 25.0908 -33.3084
531 2 38.1711 25.4684 -33.5331
227 2 0.766379 -11.003 42.0489
216 2 36.1489 18.9874 4.81705
21 2 45.5145 -50.9866 7.2877
353 2 11.0671 23.4218 4.83016
242 2 15.788 20.5617 7.67993
241 1 15.3666 20.4087 8.74979
354 2 10.2833 21.7313 3.44806
352 1 10.6752 22.5765 4.13911
54 2 47.574 18.1795 -27.7373
52 1 46.6429 18.4729 -27.1108
193 1 44.404 34.3704 6.03286
247 1 36.381 -4.2418 41.5806
88 1 7.53058 -2.76165 2.74918
122 2 38.2836 28.2393 41.7583
89 2 8.6158 -2.3596 2.8283
123 2 40.3213 28.749 40.7732
112 1 3.15539 33.7498 41.3385
114 2 3.24092 33.0959 42.2928
113 2 3.06985 34.4037 40.3842
322 1 79.9005 -4.43348 6.75797
324 2 79.9157 -4.74495 5.64067
323 2 79.8853 -4.122 7.87527
121 1 39.3024 28.4941 41.2658
90 2 6.44536 -3.1637 2.67007
274 1 37.0417 -5.64924 1.98133
195 2 43.3869 34.2777 5.48279
159 2 38.47 35.0048 8.31518
275 2 38.0432 -6.10806 1.61778
248 2 36.9567 -5.24081 41.4532
157 1 37.5538 34.3219 8.51433
542 2 5.44239 -6.30925 -34.3924
158 2 36.6375 33.6389 8.71348
541 1 5.20992 -6.36621 -35.5274
276 2 36.0402 -5.19042 2.34487
563 2 12.4757 -1.41054 0.708187
368 2 -25.0712 -4.26027 38.2868
208 1 49.629 -41.8319 42.9897
210 2 49.1655 -41.0599 42.2584
367 1 -25.354 -4.26377 37.1618
369 2 -25.6367 -4.26727 36.0368
69 2 53.6316 68.3299 8.91603
209 2 50.0925 -42.6039 43.721
194 2 45.4211 34.4632 6.58293
562 1 11.4152 -1.33932 0.243383
251 2 42.3624 59.9399 15.6602
250 1 42.9579 58.9511 15.7752
252 2 43.5534 57.9623 15.8901
477 2 5.2953 54.417 -26.2357
53 2 45.7117 18.7664 -26.4843
243 2 14.9451 20.2558 9.81966
449 2 41.4098 30.7939 82.4369
96 2 44.7182 -2.11509 -20.9108
523 1 0.62654 -6.42453 47.9451
450 2 43.4832 30.6123 83.4619
448 1 42.4465 30.7031 82.9494
524 2 0.0926125 -7.38792 48.309
525 2 1.16047 -5.46115 47.5812
94 1 44.269 -1.71673 -19.9182
180 2 40.0873 32.4243 51.1874
95 2 43.8199 -1.31837 -18.9256
178 1 40.3153 33.5251 50.9015
179 2 40.5433 34.6259 50.6155
297 2 -18.9705 32.0738 15.7191
295 1 -18.0912 31.3184 15.6757
587 2 47.7306 35.7096 46.5336
594 2 10.0857 65.1733 49.5452
67 1 53.2934 68.5917 9.99431
592 1 9.86553 66.2639 49.8733
68 2 52.9552 68.8535 11.0726
204 2 -59.6803 -8.1969 15.3906
202 1 -59.9948 -8.53655 16.4542
544 1 45.9047 -2.5242 10.7986
203 2 -60.3094 -8.87621 17.5178
545 2 45.053 -1.73909 10.737
593 2 9.64533 67.3546 50.2014
546 2 46.7564 -3.30931 10.8601
379 1 36.8431 19.5832 -11.2542
495 2 43.1229 -13.1037 59.5501
493 1 42.168 -13.3871 60.1446
494 2 41.213 -13.6705 60.7391
380 2 37.9278 19.1817 -11.3432
259 1 11.1156 23.7123 55.7647
37 1 16.2684 21.7735 23.9827
302 2 14.016 21.7895 20.1147
301 1 14.5114 21.5395 19.096
413 2 9.65436 -15.0676 -11.2551
412 1 10.7396 -15.3123 -11.5837
327 2 -23.594 23.8681 25.3033
325 1 -23.3273 23.054 26.0854
326 2 -23.0606 22.2399 26.8675
414 2 11.8248 -15.5571 -11.9123
522 2 9.85843 19.1241 18.8999
261 2 11.2835 23.1864 54.7444
303 2 15.0068 21.2895 18.0774
76 1 16.6644 26.478 23.5205
428 2 49.4576 26.1416 26.8172
38 2 15.3169 21.9573 23.3451
520 1 10.5545 18.9795 19.8165
260 2 10.9477 24.2381 56.7849
521 2 11.2506 18.8349 20.7331
427 1 49.3082 26.5162 25.7296
429 2 49.1588 26.8908 24.642
77 2 16.0445 25.6272 24.0079
39 2 17.2199 21.5897 24.6202
341 2 13.979 54.0154 25.1919
597 2 7.02247 -0.943493 -13.5183
595 1 6.39444 -0.298505 -12.7867
263 2 40.5603 -40.811 25.9317
462 2 37.531 101.629 -12.1434
460 1 37.1518 102.403 -11.3667
461 2 36.7726 103.177 -10.5901
262 1 41.6343 -41.2047 25.7393
264 2 42.7083 -41.5984 25.5469
2 2 12.7696 -6.30551 -9.41218
293 2 13.2857 31.5096 23.5789
78 2 17.2843 27.3287 23.0331
292 1 13.098 32.5271 23.0544
294 2 12.9103 33.5447 22.53
44 2 10.5113 -1.26483 55.0636
43 1 9.59005 -0.604113 55.3093
11 2 5.11617 19.9391 -41.5784
10 1 5.0344 20.503 -40.5681
551 2 6.97032 24.8753 -7.4579
465 2 1.75367 57.2663 34.1614
12 2 4.95263 21.067 -39.5577
463 1 1.05186 58.1887 34.1133
552 2 7.01788 22.5789 -7.78446
464 2 0.350052 59.111 34.0652
550 1 6.9941 23.7271 -7.62118
388 1 8.27161 62.1203 31.6221
419 2 40.7557 26.323 65.7337
389 2 7.39465 62.4036 32.3265
124 1 47.0324 -16.3592 -7.85571
441 2 11.7728 -12.4209 29.4903
482 2 -25.4451 57.0492 33.6073
439 1 11.827 -11.27 29.3553
440 2 11.8812 -10.1192 29.2203
125 2 46.5473 -15.6297 -7.09541
390 2 9.14858 61.8369 30.9176
481 1 -24.8518 57.6473 34.4047
483 2 -24.2585 58.2453 35.2022
266 2 -18.9131 -45.8443 29.0548
126 2 47.5175 -17.0888 -8.61602
357 2 2.28761 27.6424 -8.27498
355 1 1.27856 27.9534 -7.79466
418 1 41.5152 27.1203 65.3689
356 2 0.269508 28.2644 -7.31435
543 2 4.97745 -6.42316 -36.6625
103 1 41.6297 32.6671 32.7437
104 2 42.4061 32.563 31.8881
420 2 42.2748 27.9175 65.0041
105 2 40.8533 32.7712 33.5992
564 2 10.3548 -1.26811 -0.221421
556 1 47.7056 -2.96945 31.9388
1 1 12.1862 -6.77002 -8.52367
3 2 11.6028 -7.23453 -7.63517
558 2 47.506 -3.74393 31.0986
557 2 47.9052 -2.19496 32.779
265 1 -18.1338 -44.9946 29.1828
361 1 -12.0003 38.3681 43.7422
363 2 -10.9189 38.0871 43.4304
362 2 -13.0817 38.6491 44.0541
581 2 24.1394 6.08428 6.04534
281 2 -11.0104 -35.2148 39.5407
580 1 24.7579 6.0965 7.02665
280 1 -11.7692 -34.5483 40.1112
582 2 25.3764 6.10872 8.00796
168 2 -17.7158 38.0755 36.0653
282 2 -12.5281 -33.8818 40.6818
446 2 19.7553 7.48665 44.0878
445 1 20.8332 7.81003 43.8064
447 2 21.911 8.1334 43.525
506 2 -51.4223 2.21202 78.3116
505 1 -52.5228 2.57845 78.3292
507 2 -53.6232 2.94489 78.3468
585 2 -6.59361 8.85022 5.07045
33 2 -1.08972 3.45964 -30.047
32 2 -2.95972 2.09344 -30.1848
31 1 -2.02472 2.77654 -30.1159
171 2 -0.0717135 -35.0678 3.95226
455 2 -5.67994 4.15201 -27.4853
537 2 -14.7826 -19.6409 0.534469
206 2 59.8819 53.3802 -34.0956
535 1 -14.2416 -20.5983 0.165399
391 1 -1.43766 49.7503 -32.0344
393 2 -1.31761 50.9036 -32.002
583 1 -5.51334 9.17647 5.33908
584 2 -4.43307 9.50272 5.60772
392 2 -1.55772 48.597 -32.0669
176 2 -13.812 6.00805 13.7119
175 1 -12.9541 5.79325 14.4626
141 2 -13.4318 8.38064 11.4159
436 1 -10.6736 80.5096 15.0327
438 2 -11.5502 80.211 14.3342
177 2 -12.0962 5.57844 15.2132
6 2 24.8143 3.85477 46.647
4 1 25.8873 3.93266 46.213
5 2 26.9602 4.01055 45.779
110 2 20.8923 5.88241 17.3862
136 1 -9.38663 4.53082 13.5614
137 2 -9.72554 5.63421 13.6766
109 1 20.6646 7.01067 17.5302
138 2 -9.04772 3.42743 13.4462
151 1 55.8208 38.6459 17.0001
437 2 -9.79693 80.8081 15.7313
152 2 55.2208 38.3914 17.9596
153 2 56.4209 38.9004 16.0405
111 2 20.4368 8.13894 17.6743
409 1 -5.1699 -35.4433 -21.386
501 2 33.7978 2.32697 -24.8742
499 1 33.6584 3.47408 -24.9757
500 2 33.519 4.6212 -25.0772
316 1 33.3721 44.2485 53.6948
317 2 34.0049 43.2785 53.63
454 1 -5.8529 3.59027 -26.4852
456 2 -6.02586 3.02852 -25.4852
410 2 -5.26095 -34.6724 -20.524
135 2 31.8435 -27.6565 49.0156
398 2 -3.16448 39.3221 -18.2081
36 2 35.9426 73.0342 50.3213
140 2 -13.6055 9.87048 13.1858
139 1 -13.5187 9.12556 12.3009
134 2 32.8314 -25.639 48.4357
133 1 32.3374 -26.6477 48.7256
408 2 -44.779 -21.7879 -18.9164
406 1 -44.3028 -22.3033 -19.84
407 2 -43.8266 -22.8187 -20.7637
318 2 32.7392 45.2185 53.7597
213 2 -10.9092 8.22928 56.114
211 1 -11.6148 8.32369 55.1982
212 2 -12.3205 8.4181 54.2824
257 2 -8.21401 36.7193 18.8584
401 2 35.0606 40.1891 -50.302
256 1 -7.08716 36.9923 18.8227
480 2 31.2821 3.05707 26.2382
399 2 -0.95767 38.7894 -17.7299
397 1 -2.06107 39.0557 -17.969
405 2 28.6503 -31.2575 21.9346
403 1 28.0548 -30.5778 22.6619
404 2 27.4593 -29.8981 23.3892
258 2 -5.96031 37.2654 18.787
400 1 35.8024 41.0741 -50.412
147 2 19.0155 10.651 22.9991
145 1 20.0944 11.0761 23.0255
146 2 21.1734 11.5012 23.0519
375 2 61.7625 83.1737 58.0713
373 1 62.6747 82.4769 57.9039
50 2 26.9558 50.9464 23.0009
310 1 -7.14837 11.6585 55.3283
474 2 -36.7195 9.04613 -10.5595
311 2 -6.97709 12.374 56.2251
472 1 -36.9022 9.64318 -11.5372
518 2 35.5055 16.8138 -11.6379
49 1 27.7071 51.4512 22.2753
51 2 28.4583 51.9559 21.5497
374 2 63.5869 81.7801 57.7366
473 2 -37.0849 10.2402 -12.5148
312 2 -7.31964 10.9429 54.4315
85 1 -10.653 2.6062 31.4239
87 2 -9.98236 2.7238 32.3631
86 2 -11.3236 2.48859 30.4848
166 1 -17.6803 38.9301 35.2817
167 2 -17.6447 39.7847 34.4981
378 2 65.9684 41.4319 29.7407
376 1 65.1688 41.5099 30.5775
377 2 64.3692 41.5879 31.4142
14 2 71.2685 37.5466 68.9512
13 1 70.2588 37.5898 69.5207
15 2 69.2492 37.6331 70.0902
91 1 28.2404 0.185583 34.9512
93 2 28.2054 0.810579 33.9746
479 2 30.6254 2.19673 28.2902
478 1 30.9537 2.6269 27.2642
237 2 -0.200972 3.03871 35.7711
190 1 23.0933 16.0242 28.1048
536 2 -13.7006 -21.5558 -0.203672
278 2 26.7342 49.7015 31.4088
277 1 25.5916 49.8817 31.3214
279 2 24.449 50.0618 31.234
192 2 24.1735 15.8145 28.4721
191 2 22.0132 16.2339 27.7376
181 1 -17.9421 17.3369 69.4364
182 2 -17.116 17.1802 70.2356
253 1 69.6477 9.84818 -6.96678
254 2 69.6868 10.159 -5.84987
255 2 69.6086 9.53741 -8.0837
443 2 -2.60279 53.9492 -7.87763
79 1 -10.5808 23.5926 37.4018
81 2 -11.2799 24.1027 36.6294
431 2 -53.0156 -15.6659 73.8051
430 1 -52.3308 -15.5533 74.7346
549 2 59.17 26.6823 0.804072
80 2 -9.8817 23.0825 38.1742
547 1 58.6426 25.8499 1.41617
432 2 -51.646 -15.4408 75.6641
548 2 58.1153 25.0175 2.02826
207 2 59.1397 55.3157 -35.1374
205 1 59.5108 54.3479 -34.6165
185 2 31.197 23.3008 77.7968
184 1 32.1616 23.8643 78.1093
186 2 33.1261 24.4278 78.4218
215 2 34.6738 19.1257 3.03171
226 1 -0.0104825 -11.374 41.2715
214 1 35.4114 19.0565 3.92438
394 1 29.3677 20.4926 5.32177
395 2 30.3877 19.9693 5.14458
396 2 28.3478 21.016 5.49897
228 2 -0.787343 -11.7449 40.494
246 2 64.0047 -8.29243 39.4032
244 1 63.8491 -8.14593 40.5433
336 2 -7.77805 34.624 5.96726
245 2 63.6934 -7.99943 41.6835
335 2 -8.17231 34.9671 8.22763
7 1 -2.87472 33.4026 43.9962
423 2 29.6356 -5.30594 6.55533
9 2 -2.63122 32.31 44.3004
8 2 -3.11822 34.4952 43.6921
221 2 67.2657 30.3491 39.191
117 2 65.9376 32.8826 0.175051
116 2 67.373 34.5162 0.983462
220 1 68.0547 29.7262 38.6122
115 1 66.6553 33.6994 0.579257
222 2 68.8437 29.1033 38.0334
421 1 30.3291 -6.15482 6.17585
334 1 -7.97518 34.7956 7.09745
422 2 31.0226 -7.00371 5.79638
249 2 35.8054 -3.24279 41.7079
329 2 -14.97 59.1308 10.01
328 1 -15.5205 60.087 10.3685
330 2 -16.0709 61.0431 10.7269
150 2 68.3346 61.0977 14.166
148 1 69.0351 60.4647 13.4921
149 2 69.7357 59.8317 12.8182
64 1 -6.90771 55.732 86.8433
66 2 -7.29301 55.4499 85.7861
65 2 -6.52241 56.0141 87.9004
346 1 26.7198 -37.6699 -20.9901
296 2 -17.2119 30.563 15.6322
348 2 25.8987 -37.8528 -20.1915
411 2 -5.07886 -36.2142 -22.2479
165 2 30.0349 31.4088 13.0669
238 1 65.6318 27.3213 49.6332
240 2 65.1856 27.1173 48.582
239 2 66.0779 27.5253 50.6843
163 1 29.7542 31.9094 14.075
164 2 29.4736 32.4101 15.083
347 2 27.541 -37.487 -21.7888
415 1 22.0266 25.1748 21.9186
118 1 18.1151 54.7742 25.166
491 2 24.5539 21.4999 24.2317
490 1 24.563 20.8133 25.1667
416 2 20.9841 25.2681 22.4187
492 2 24.5721 20.1267 26.1016
119 2 18.0851 54.4712 24.0466
417 2 23.0691 25.0815 21.4185
102 2 21.2818 56.3691 25.5817
199 1 -10.0809 20.0112 19.5765
200 2 -10.4295 20.6807 20.4573
100 1 20.9419 57.3219 26.1494
458 2 -49.0931 -11.3246 -9.90761
201 2 -9.73226 19.3417 18.6957
101 2 20.602 58.2747 26.7171
120 2 18.1452 55.0773 26.2853
515 2 28.6486 26.608 26.8156
466 1 -5.83854 56.4543 -46.4821
467 2 -6.00552 57.4355 -45.8862
468 2 -5.67156 55.4732 -47.078
187 1 -5.06319 20.5949 19.392
189 2 -6.15253 20.6555 19.7861
188 2 -3.97384 20.5342 18.998
381 2 35.7585 19.9848 -11.1651
162 2 26.1958 29.477 25.2617
160 1 25.4704 29.1542 26.1074
132 2 58.358 30.1038 24.8363
28 1 -9.49757 27.5057 -12.9645
29 2 -10.6065 27.2381 -12.754
130 1 58.1759 31.196 25.1821
131 2 57.9938 32.2882 25.528
358 1 55.287 34.8177 -17.4221
360 2 56.2725 35.3475 -17.7282
359 2 54.3015 34.288 -17.116
161 2 24.745 28.8314 26.9531
173 2 33.2251 29.1814 24.0735
30 2 -8.38865 27.7732 -13.1751
17 2 -6.43502 -6.01612 -53.6149
16 1 -6.67564 -5.14122 -52.8922
172 1 32.1758 28.8878 23.6757
18 2 -6.91626 -4.26632 -52.1695
174 2 31.1264 28.5941 23.2779
459 2 -48.7049 -11.2058 -7.62341
73 1 -14.4932 18.283 -3.50978
74 2 -13.5928 18.0033 -2.83407
56 2 55.3084 22.2556 -1.18262
55 1 56.2406 22.5277 -1.81706
426 2 26.4681 23.6231 27.4956
57 2 57.1728 22.7999 -2.4515
284 2 25.3009 24.6623 -5.28158
457 1 -48.899 -11.2652 -8.76551
75 2 -15.3937 18.5627 -4.1855
590 2 26.9999 26.0625 -0.548371
283 1 24.4833 25.1817 -4.64344
424 1 26.9278 22.5636 27.3871
285 2 23.6656 25.7012 -4.00529
82 1 33.1814 -15.7017 34.3586
83 2 33.9555 -16.0452 35.1514
71 2 -42.64 23.243 -4.98868
70 1 -43.0324 24.0766 -4.28391
72 2 -43.4248 24.9103 -3.57915
442 1 -1.9218 54.8836 -7.97108
425 2 27.3875 21.5041 27.2786
84 2 32.4074 -15.3581 33.5659
444 2 -1.2408 55.8181 -8.06452
527 2 21.2035 -0.478748 33.4998
267 2 -17.3546 -44.1449 29.3108
485 2 55.8742 -6.28831 -5.07604
486 2 57.3152 -5.3563 -6.63715
589 1 26.669 27.1266 -0.870741
591 2 26.3382 28.1906 -1.19311
484 1 56.5947 -5.82231 -5.8566
578 2 25.5433 -5.40551 67.7756
577 1 24.8794 -4.95428 68.6129
579 2 24.2154 -4.50304 69.4503
528 2 20.7867 -1.92987 31.7383
526 1 20.9951 -1.20431 32.619
98 2 33.1333 -0.820418 -1.09074
514 1 29.2452 27.4781 27.2979
97 1 33.2799 -1.94691 -1.32549
40 1 27.8607 32.9467 -1.65427
42 2 28.6344 33.0229 -2.51523
92 2 28.2755 -0.439414 35.9278
41 2 27.0871 32.8704 -0.79331
516 2 29.8419 28.3481 27.7802
99 2 33.4266 -3.07341 -1.56024
ITEM: TIMESTEP
10000
ITEM: NUMBER OF ATOMS
600
ITEM: BOX BOUNDS pp pp pp
0.0000000000000000e+00 3.6000000000000000e+01
0.0000000000000000e+00 3.6000000000000000e+01
0.0000000000000000e+00 3.6000000000000000e+01
ITEM: ATOMS id type xu yu zu
233 2 3.31903 7.60887 0.732989
20 2 11.6461 -19.6899 8.57743
317 2 41.3187 76.7388 43.8912
124 1 51.792 -28.4488 3.85214
537 2 -18.8535 -24.44 2.41736
126 2 52.3053 -27.9168 2.9583
295 1 -35.1764 41.4272 5.06171
296 2 -35.1961 41.0322 6.15218
125 2 51.2786 -28.9809 4.74598
523 1 -23.7913 7.37441 38.8796
16 1 -22.3114 8.44814 -63.252
583 1 0.38125 11.3167 8.27059
525 2 -24.6022 7.06866 39.6506
297 2 -35.1568 41.8223 3.97123
524 2 -22.9803 7.68016 38.1086
316 1 40.1987 76.997 44.0481
279 2 41.9967 47.4275 37.204
545 2 45.7684 16.8322 0.525513
554 2 5.0548 12.7017 42.8581
278 2 40.7417 48.6423 38.7309
17 2 -22.8952 8.78132 -64.1974
553 1 4.74689 11.9127 42.0654
555 2 4.43898 11.1237 41.2728
318 2 39.0788 77.2552 44.2051
277 1 41.3692 48.0349 37.9674
584 2 1.13271 10.798 8.98603
197 2 14.3697 41.3425 -35.67
463 1 12.6962 73.2978 13.8695
540 2 41.4352 12.0801 49.3046
21 2 12.7321 -21.2232 9.93826
511 1 75.4884 10.08 15.9254
88 1 2.8855 -21.927 15.7771
464 2 12.7024 72.2187 14.295
568 1 10.667 7.84809 -20.1788
569 2 11.2971 7.82918 -19.2051
570 2 10.0368 7.86699 -21.1525
90 2 2.49108 -22.4639 14.8275
538 1 40.4759 11.4836 49.0409
89 2 3.27992 -21.3901 16.7268
539 2 39.5167 10.8871 48.7772
512 2 74.9493 9.26541 15.2997
485 2 79.0515 7.66724 -21.7261
486 2 79.2839 7.52517 -19.4221
484 1 79.1677 7.5962 -20.5741
513 2 76.0274 10.8946 16.5511
465 2 12.69 74.3769 13.444
275 2 36.4072 11.5859 11.8055
588 2 44.4095 53.1799 53.0032
19 1 12.1891 -20.4566 9.25785
18 2 -21.7276 8.11497 -62.3066
79 1 0.0165931 0.0558088 46.8222
358 1 41.8083 37.5634 -14.9117
359 2 42.2416 36.7374 -14.222
404 2 47.5023 -32.1017 26.3956
360 2 41.3749 38.3893 -15.6014
153 2 40.7358 43.2525 23.7157
294 2 2.87812 39.6199 23.7816
151 1 41.7253 43.2992 24.3193
152 2 42.7147 43.346 24.9229
11 2 4.51114 17.3526 -11.4677
435 2 -27.3185 77.1599 -9.56655
10 1 4.82646 17.817 -10.4526
184 1 42.6863 38.4313 60.6641
292 1 3.2128 40.1943 24.7322
92 2 51.981 10.0518 19.6876
186 2 41.8277 38.8038 59.9788
403 1 48.6584 -32.1557 26.4735
405 2 49.8145 -32.2097 26.5513
433 1 -26.4581 77.9373 -9.59429
91 1 51.5148 9.00513 19.8683
93 2 51.0485 7.95842 20.049
169 1 15.5825 -35.6596 23.5527
293 2 3.54748 40.7687 25.6829
209 2 49.8612 -54.3665 26.417
185 2 43.5449 38.0589 61.3494
170 2 15.61 -34.5163 23.3585
495 2 42.5969 -19.1938 57.2069
493 1 41.8749 -20.1007 57.1627
478 1 38.7752 10.3027 26.0529
479 2 39.4468 10.9271 25.3426
480 2 38.1036 9.67822 26.7633
494 2 41.153 -21.0075 57.1186
434 2 -25.5976 78.7148 -9.62203
111 2 37.0756 7.47978 34.0591
377 2 81.244 36.8897 30.6524
109 1 36.5924 7.64565 33.0176
110 2 36.1092 7.81151 31.9762
342 2 13.8592 53.5172 32.0334
307 1 3.19872 44.0157 64.8072
376 1 80.9734 36.0371 31.3908
311 2 1.25346 5.05058 65.8542
442 1 5.89561 72.768 -5.35102
208 1 50.6256 -54.6716 27.2345
73 1 -24.4842 4.76977 -4.38315
216 2 48.2704 13.6674 30.794
27 2 13.1964 10.4359 29.7082
26 2 10.9175 10.0735 29.4676
309 2 3.44997 45.0781 65.1993
75 2 -24.5313 3.73482 -3.86137
432 2 -54.166 -26.2774 64.4428
25 1 12.0569 10.2547 29.5879
546 2 44.5338 15.2122 -0.585347
74 2 -24.4371 5.80473 -4.90492
94 1 42.9965 16.2478 -39.3426
140 2 4.70082 9.08052 33.5146
95 2 42.0213 15.9609 -38.7838
234 2 3.81401 6.05516 -0.917279
139 1 5.49821 8.53563 34.1572
430 1 -55.0254 -27.0522 64.5256
198 2 16.0212 41.3039 -37.2989
196 1 15.1955 41.3232 -36.4844
431 2 -55.8847 -27.8269 64.6084
240 2 45.2743 10.3814 69.2143
374 2 86.3805 81.8238 69.8809
239 2 44.1394 9.94569 67.2384
238 1 44.7069 10.1636 68.2264
373 1 87.2691 81.1813 69.5024
375 2 88.1576 80.5388 69.1239
232 1 3.56652 6.83201 -0.0921452
214 1 48.863 13.9154 31.7599
215 2 49.4555 14.1634 32.7258
96 2 43.9717 16.5346 -39.9015
141 2 6.2956 7.99073 34.7997
310 1 0.80908 4.22652 65.1694
444 2 6.60475 73.6475 -5.61386
210 2 51.3899 -54.9766 28.052
308 2 2.94747 42.9533 64.415
312 2 0.364702 3.40246 64.4845
544 1 45.1511 16.0222 -0.0299165
235 1 3.50946 23.0027 43.6341
237 2 2.95722 23.6833 42.8742
236 2 4.06171 22.3221 44.394
369 2 -32.2636 -16.7248 41.9365
155 2 53.3861 -51.9176 0.138453
534 2 -20.4604 28.77 44.5096
281 2 -19.6558 -40.3182 37.7254
497 2 -25.841 22.6266 38.0712
548 2 45.9159 29.3755 0.554765
367 1 -33.2104 -17.2627 41.5367
280 1 -19.2091 -40.9854 36.8882
498 2 -27.6998 24.0148 38.0751
66 2 9.17671 63.108 74.7818
64 1 8.82998 62.4835 75.6958
496 1 -26.7704 23.3207 38.0732
282 2 -18.7624 -41.6527 36.0511
65 2 8.48324 61.859 76.6098
368 2 -34.1572 -17.8006 41.137
100 1 13.6049 60.6913 16.5209
319 1 4.04258 62.0172 13.4017
268 1 15.82 33.318 9.779
419 2 39.3708 32.0004 84.3545
418 1 39.9892 31.2396 84.9745
420 2 40.6075 30.4788 85.5944
321 2 3.25563 62.85 13.5827
393 2 8.33986 59.379 -57.2885
148 1 42.8506 58.656 11.8688
391 1 7.4774 58.8559 -56.7156
532 1 -20.4395 29.2378 45.5708
56 2 74.2802 32.9324 9.85554
149 2 42.1898 57.7152 12.0234
298 1 78.9236 33.774 12.8941
269 2 15.6715 34.3917 10.1922
448 1 43.4431 26.8445 82.6828
450 2 42.9626 26.0157 82.0288
57 2 75.8227 31.3124 9.23997
55 1 75.0515 32.1224 9.54776
437 2 -23.1465 66.4066 15.4261
436 1 -23.7751 66.9023 14.5866
533 2 -20.4186 29.7056 46.6321
270 2 15.9685 32.2443 9.36579
438 2 -24.4037 67.3981 13.7471
392 2 6.61494 58.3329 -56.1427
320 2 4.82954 61.1844 13.2208
449 2 43.9237 27.6733 83.3368
300 2 79.4381 34.2768 13.8041
101 2 13.2406 61.5522 15.8341
260 2 14.8851 25.9834 45.7279
261 2 16.7154 25.1995 46.9187
299 2 78.409 33.2712 11.9841
422 2 17.57 -12.1521 17.4454
102 2 13.9692 59.8303 17.2076
150 2 43.5114 59.5968 11.7142
259 1 15.8002 25.5914 46.3233
587 2 44.7792 55.3799 53.6402
586 1 44.5944 54.2799 53.3217
189 2 0.0234477 21.6737 14.5859
81 2 0.919335 -0.601026 47.1372
251 2 38.9144 57.2843 21.4778
288 2 0.729871 -48.8766 -10.7897
46 1 41.4771 25.7388 -14.611
510 2 -20.5612 -8.14601 56.9262
264 2 39.4461 -36.5271 23.9246
250 1 39.3137 57.6345 22.509
59 2 0.296176 -4.95755 60.7622
47 2 41.24 26.5845 -15.3688
388 1 7.29356 67.5427 22.8701
329 2 -33.0516 63.4104 26.5108
252 2 39.713 57.9848 23.5403
445 1 38.6111 -6.02173 20.5582
286 1 1.6315 -48.68 -10.0869
48 2 41.7142 24.8931 -13.8532
350 2 -25.5493 27.7903 -12.8647
390 2 7.86555 68.4855 22.5101
470 2 4.84172 33.5149 -46.0637
287 2 2.53312 -48.4834 -9.38398
349 1 -26.1434 28.537 -13.5244
115 1 53.4273 34.7428 18.8587
471 2 3.72004 31.489 -46.2061
447 2 37.8094 -6.76034 20.1615
224 2 11.5878 31.4383 26.3921
469 1 4.28088 32.502 -46.1349
508 1 -20.355 -9.28744 56.9114
509 2 -20.1488 -10.4289 56.8967
351 2 -26.7375 29.2836 -14.184
446 2 39.4128 -5.28312 20.9548
60 2 0.844998 -3.54908 59.0023
389 2 6.72157 66.5999 23.2301
58 1 0.570588 -4.25332 59.8823
262 1 39.8757 -37.4621 23.3891
263 2 40.3052 -38.3972 22.8536
117 2 52.4424 35.1514 19.3155
171 2 15.555 -36.8029 23.747
12 2 5.14178 18.2815 -9.4375
336 2 -26.7323 34.7929 -9.37595
334 1 -27.8225 35.0706 -9.09318
156 2 53.355 -53.093 -1.86149
439 1 3.21001 -11.3962 31.5904
440 2 2.16957 -11.6931 31.1721
441 2 4.25044 -11.0994 32.0087
290 2 1.43693 -9.47186 69.5096
154 1 53.3705 -52.5053 -0.861521
143 2 46.0207 -3.94948 -41.9542
547 1 46.1571 29.9895 -0.399408
364 1 0.308297 21.16 29.0997
242 2 8.40751 24.2545 -8.47263
328 1 -32.7093 64.2043 27.2842
366 2 0.717054 21.1904 30.1849
459 2 -63.5296 -8.00351 -3.13454
489 2 -21.9143 61.5656 -5.76636
218 2 -30.6621 -17.6459 30.9422
341 2 13.522 54.749 30.0966
144 2 46.2621 -1.64216 -41.9345
488 2 -22.6438 62.6899 -3.87263
443 2 5.18647 71.8884 -5.08819
340 1 13.6906 54.1331 31.065
582 2 41.8071 -2.04026 -1.79116
241 1 8.08795 23.4774 -7.67284
520 1 9.92942 18.783 63.9232
487 1 -22.2791 62.1278 -4.81949
457 1 -63.8261 -6.92329 -3.43596
243 2 7.7684 22.7004 -6.87306
581 2 41.7832 -4.20965 -0.969228
289 1 1.1783 -9.13615 68.4297
225 2 12.0149 33.248 27.7795
223 1 11.8013 32.3432 27.0858
291 2 0.919674 -8.80044 67.3499
571 1 4.86949 30.4809 67.6585
557 2 42.4456 -13.5161 32.8103
120 2 36.4497 57.2532 34.5533
549 2 46.3983 30.6034 -1.35358
573 2 4.75869 29.6799 68.4902
558 2 43.9067 -11.7145 32.7685
556 1 43.1761 -12.6153 32.7894
572 2 4.98028 31.282 66.8269
522 2 9.10609 19.0615 63.155
142 1 46.1414 -2.79582 -41.9444
580 1 41.7951 -3.12495 -1.3802
458 2 -64.1225 -5.84308 -3.73738
378 2 80.7027 35.1844 32.1293
521 2 10.7527 18.5044 64.6914
335 2 -28.9127 35.3482 -8.8104
105 2 36.1526 29.6755 32.5008
330 2 -32.367 64.9982 28.0576
219 2 -32.2782 -16.6147 29.6356
217 1 -31.4701 -17.1303 30.2889
343 1 -14.826 43.3733 44.2799
594 2 21.7279 74.969 76.2415
593 2 20.6931 73.0708 75.3997
514 1 27.4493 39.9554 40.044
68 2 69.1713 82.1769 5.42784
8 2 -9.71804 38.3492 43.724
344 2 -13.9943 42.6773 44.6915
345 2 -15.6577 44.0693 43.8683
515 2 27.1998 40.8997 40.6698
516 2 27.6988 39.0111 39.4182
491 2 35.0132 16.0791 44.5192
406 1 -49.5291 -25.5778 -30.2842
162 2 27.2179 13.3001 2.87855
550 1 22.1736 10.5908 1.33318
598 1 33.3932 40.1759 0.941887
600 2 34.3527 40.4924 1.51183
7 1 -10.5653 38.5742 42.9642
599 2 32.4337 39.8594 0.371947
592 1 21.2105 74.0199 75.8206
9 2 -11.4125 38.7992 42.2045
408 2 -49.0277 -24.5528 -30.0757
331 1 -12.3996 -29.943 37.089
574 1 67.142 42.4567 42.8975
576 2 67.6513 42.9247 41.9663
271 1 30.3076 -28.8015 2.41176
575 2 66.6327 41.9887 43.8287
589 1 32.2683 16.4379 5.41204
272 2 29.5089 -28.7305 3.25008
273 2 31.1062 -28.8724 1.57344
69 2 68.6621 82.3139 3.16856
490 1 35.3904 17.0543 44.017
535 1 -17.9593 -23.8941 2.91524
67 1 68.9167 82.2454 4.2982
407 2 -50.0306 -26.6028 -30.4927
591 2 31.4425 16.0449 4.69849
590 2 33.0941 16.831 6.12559
585 2 -0.370206 11.8354 7.55515
551 2 23.2042 10.7003 1.85427
501 2 61.9429 15.5275 -30.5428
500 2 62.4068 14.1067 -28.7685
332 2 -13.434 -30.0149 36.5689
499 1 62.1749 14.8171 -29.6556
536 2 -17.065 -23.3482 3.41313
160 1 27.374 14.447 2.95488
161 2 27.5301 15.5939 3.03121
552 2 21.143 10.4813 0.812102
333 2 -11.3652 -29.871 37.609
35 2 25.9498 51.3188 36.297
39 2 26.5352 11.7642 0.0266584
395 2 19.7769 6.47945 0.126393
201 2 -8.26792 7.38645 36.4079
324 2 91.2767 -24.5736 12.3946
322 1 92.3533 -24.6794 11.9758
323 2 93.4298 -24.7853 11.5571
417 2 18.5909 42.2014 17.9675
98 2 33.3191 1.497 -18.6814
303 2 19.6703 0.171217 16.5214
530 2 33.0645 36.9161 -59.3315
415 1 18.6122 43.0764 17.2062
416 2 18.6335 43.9514 16.4449
53 2 25.7647 4.67838 -26.0433
401 2 31.0291 79.5991 -59.9735
529 1 33.0249 37.9918 -59.7639
428 2 62.8219 44.4686 17.6544
427 1 62.6152 44.5014 16.5135
429 2 62.4084 44.5343 15.3725
276 2 35.147 13.2593 10.8087
274 1 35.7771 12.4226 11.3071
80 2 -0.886149 0.712643 46.5072
402 2 31.2362 81.5451 -58.7274
531 2 32.9854 39.0675 -60.1962
52 1 24.6868 4.33831 -25.7824
29 2 -14.2012 49.777 -21.3816
28 1 -14.6403 50.671 -20.787
30 2 -15.0794 51.5651 -20.1924
129 2 64.9969 -21.8197 9.87906
128 2 66.3447 -23.1328 11.2362
127 1 65.6708 -22.4763 10.5576
113 2 22.8669 17.123 50.4854
400 1 31.1327 80.5721 -59.3504
454 1 -9.64697 1.10637 -20.1196
455 2 -8.57764 1.54952 -20.1954
54 2 23.6089 3.99823 -25.5215
112 1 22.0457 17.8601 50.1276
306 2 -49.7625 37.8925 -19.9833
456 2 -10.7163 0.66322 -20.0438
304 1 -49.4827 37.6128 -18.8928
451 1 60.7153 -31.0135 62.5009
63 2 -3.20879 14.4603 24.5475
384 2 -14.7118 0.659312 57.2231
305 2 -49.203 37.3332 -17.8023
265 1 -1.89172 -24.2027 19.1284
136 1 -15.3489 10.0745 26.4901
192 2 29.1651 36.6092 25.8808
97 1 33.1344 1.69963 -17.5543
527 2 19.1513 17.5334 19.252
190 1 30.1503 36.4874 26.4808