ITEM: TIMESTEP
0
ITEM: NUMBER OF ATOMS
150
ITEM: BOX BOUNDS pp pp pp
0.0000000000000000e+00 3.6000000000000000e+01
0.0000000000000000e+00 3.6000000000000000e+01
0.0000000000000000e+00 3.6000000000000000e+01
ITEM: ATOMS id type xu yu zu
113 2 52.3999 -32.4237 36.8728
112 1 53.0774 -33.0015 37.6163
114 2 53.7549 -33.5793 38.3598
89 2 13.8318 52.9224 44.0946
88 1 13.2484 53.8884 43.8262
141 2 6.50409 5.2135 17.6352
28 1 -26.2825 78.4191 46.8411
30 2 -26.82 77.4057 46.6684
29 2 -25.745 79.4325 47.0139
93 2 52.8243 36.0737 -26.4076
55 1 43.6138 -22.9087 16.4627
56 2 42.7382 -23.6678 16.5147
57 2 44.4894 -22.1496 16.4107
140 2 7.84501 3.91939 19.0171
139 1 7.17455 4.56645 18.3261
148 1 36.9058 4.33854 -7.52201
150 2 38.022 4.28473 -7.21055
146 2 -26.3094 -35.4946 66.893
46 1 115.096 11.8401 63.9787
48 2 114.021 11.7118 64.3955
47 2 116.171 11.9684 63.562
50 2 -24.3474 51.6342 32.0072
34 1 15.6186 16.9428 32.9154
49 1 -25.0504 51.8542 31.111
35 2 16.4525 16.7053 33.686
36 2 14.7848 17.1804 32.1447
51 2 -25.7534 52.0742 30.2149
16 1 88.2279 25.6598 -71.4715
7 1 -59.1765 -45.153 38.5964
17 2 89.0717 26.3903 -71.1551
8 2 -58.1972 -45.7238 38.3502
18 2 87.3841 24.9294 -71.7879
60 2 45.0664 23.3605 37.5328
59 2 46.5765 24.7638 38.597
58 1 45.8215 24.0621 38.0649
90 2 12.6651 54.8545 43.5578
9 2 -60.1558 -44.5821 38.8427
83 2 2.69161 -46.7927 -18.0626
120 2 72.7887 -9.77406 12.0425
82 1 2.97724 -45.8228 -18.6313
66 2 41.9438 61.9623 52.1257
118 1 72.5665 -10.8528 12.4066
119 2 72.3443 -11.9315 12.7707
64 1 42.336 63.0227 52.3851
65 2 42.7282 64.0832 52.6445
84 2 3.26288 -44.853 -19.2
92 2 50.7243 35.4902 -25.6126
91 1 51.7743 35.782 -26.0101
102 2 -29.1146 60.9289 -13.0148
100 1 -28.7348 61.2918 -14.049
101 2 -28.3549 61.6547 -15.0832
2 2 11.4172 26.6836 -41.6374
6 2 37.252 -5.17801 -6.26773
4 1 38.094 -4.98349 -5.49389
5 2 38.936 -4.78896 -4.72004
68 2 152.979 32.4841 107.041
1 1 12.3896 27.1592 -42.0543
3 2 13.362 27.6348 -42.4713
145 1 -26.6004 -36.6089 66.7544
15 2 -22.2857 35.6194 -2.74679
147 2 -26.8914 -37.7233 66.6158
14 2 -23.7031 33.8657 -2.2009
13 1 -22.9944 34.7426 -2.47385
67 1 153.063 31.5025 106.429
69 2 153.147 30.5209 105.816
117 2 18.4141 -33.8345 5.16924
115 1 18.4165 -34.987 5.03747
53 2 -9.91685 8.27575 36.4868
110 2 34.4267 7.68058 6.25325
19 1 -7.40185 43.8183 39.3606
20 2 -6.29693 43.9421 39.0298
109 1 34.3859 7.93522 5.12228
21 2 -8.50676 43.6944 39.6914
111 2 34.3452 8.18985 3.99131
52 1 -9.15325 9.08314 36.8194
136 1 139.874 14.6575 44.645
39 2 34.4055 45.6374 0.461176
54 2 -8.38964 9.89054 37.152
137 2 139.717 13.5095 44.5875
37 1 33.3892 46.1513 0.24053
38 2 32.3729 46.6651 0.0198836
138 2 140.03 15.8054 44.7025
86 2 63.6697 2.77638 -23.9486
85 1 64.0375 2.26657 -24.9235
87 2 64.4053 1.75676 -25.8984
98 2 -50.0514 -33.284 26.0499
97 1 -49.9434 -34.3964 26.3604
99 2 -49.8354 -35.5088 26.6709
143 2 18.9 40.0962 62.4721
27 2 -77.8759 50.1681 23.8854
25 1 -78.7808 50.2084 24.61
26 2 -79.6858 50.2486 25.3346
134 2 67.2639 17.4602 -13.1831
142 1 19.6175 39.8578 63.3518
144 2 20.3351 39.6193 64.2315
149 2 35.7897 4.39236 -7.83346
41 2 20.2332 15.3826 31.5913
40 1 19.8656 16.4799 31.512
42 2 19.498 17.5773 31.4327
61 1 -3.60992 22.3927 -63.8048
62 2 -4.02665 21.4567 -64.3488
63 2 -3.19319 23.3286 -63.2608
80 2 19.9087 28.402 1.30704
116 2 18.4188 -36.1395 4.9057
79 1 20.4617 28.0576 0.347276
131 2 -2.76837 29.2166 5.52546
130 1 -1.8817 28.474 5.61502
132 2 -0.99502 27.7315 5.70457
22 1 -5.61351 -5.76372 5.54029
124 1 33.9433 31.9843 8.04839
126 2 32.9972 32.3984 8.57662
23 2 -5.01355 -4.80105 5.78298
24 2 -6.21348 -6.7264 5.2976
125 2 34.8894 31.5702 7.52016
75 2 -4.50096 -44.2547 7.45039
73 1 -4.66276 -43.8154 8.51172
95 2 18.4258 25.3317 15.1496
94 1 18.7614 24.4479 14.4774
96 2 19.097 23.564 13.8053
72 2 26.6463 57.6707 45.1081
44 2 -44.0846 -9.64211 86.8366
70 1 27.5058 57.2082 45.735
71 2 28.3653 56.7457 46.3619
122 2 33.6097 -9.28667 16.0408
123 2 35.6926 -9.60667 15.0704
32 2 29.5924 25.7477 9.9074
31 1 29.0469 24.7656 10.1963
121 1 34.6512 -9.44667 15.5556
33 2 28.5014 23.7835 10.4851
45 2 -45.5191 -7.91046 87.4076
43 1 -44.8018 -8.77628 87.1221
74 2 -4.82455 -43.3761 9.57306
77 2 -10.6513 26.654 -14.0872
133 1 67.371 18.4413 -13.7927
135 2 67.478 19.4224 -14.4023
76 1 -9.62418 27.1777 -14.2147
128 2 -13.2987 33.5386 22.6041
129 2 -12.0596 31.8367 23.5791
127 1 -12.6792 32.6877 23.0916
105 2 67.0774 63.9812 -52.4152
103 1 65.9673 63.6808 -52.5671
78 2 -8.59703 27.7015 -14.3422
104 2 64.8572 63.3805 -52.719
81 2 21.0147 27.7132 -0.612485
108 2 -40.08 -2.9302 -7.29326
106 1 -40.5025 -1.94945 -7.74622
11 2 -37.993 -8.04435 99.5607
12 2 -37.9611 -7.3521 101.775
10 1 -37.9771 -7.69823 100.668
107 2 -40.9251 -0.968705 -8.19919
ITEM: TIMESTEP
10000
ITEM: NUMBER OF ATOMS
150
ITEM: BOX BOUNDS pp pp pp
0.0000000000000000e+00 3.6000000000000000e+01
0.0000000000000000e+00 3.6000000000000000e+01
0.0000000000000000e+00 3.6000000000000000e+01
ITEM: ATOMS id type xu yu zu
147 2 4.20338 -33.685 78.9413
77 2 17.9133 17.853 5.37802
145 1 4.2178 -33.5984 80.0979
3 2 15.8378 40.6476 -35.3902
23 2 -22.7971 14.4797 36.6538
1 1 15.4989 41.3655 -34.5443
2 2 15.16 42.0833 -33.6985
143 2 14.7018 45.9807 72.9846
22 1 -22.1498 15.2535 36.0813
142 1 14.0255 45.3844 72.2547
131 2 -19.8764 40.069 15.2884
93 2 48.0752 44.7002 -22.3458
91 1 47.0067 45.1152 -22.5236
138 2 158.944 0.0542853 47.8949
132 2 -20.3725 42.2021 16.0538
130 1 -20.1245 41.1355 15.6711
70 1 10.3107 48.6194 46.3871
71 2 10.3081 47.5478 46.8314
34 1 53.6642 13.84 12.6045
36 2 53.2231 13.1792 11.7593
72 2 10.3132 49.6909 45.9428
92 2 45.9382 45.5303 -22.7014
146 2 4.23221 -33.5118 81.2546
12 2 -24.864 -22.1066 92.2658
10 1 -25.9252 -22.5102 92.0283
42 2 4.36616 16.8332 18.8348
80 2 5.82507 8.12818 -15.1141
79 1 6.58877 8.06041 -14.2436
81 2 7.35247 7.99263 -13.3731
86 2 82.002 10.3207 -16.8727
85 1 81.203 9.53281 -16.5787
87 2 80.404 8.74489 -16.2847
11 2 -26.9865 -22.9138 91.7907
40 1 3.30834 16.4534 19.1218
41 2 2.25053 16.0736 19.4089
148 1 36.8173 14.4788 -36.6827
56 2 49.4524 -30.4642 34.3514
144 2 13.3493 44.7881 71.5249
24 2 -21.5026 16.0273 35.5087
55 1 50.3988 -29.8472 34.6145
57 2 51.3452 -29.2302 34.8776
149 2 37.5923 13.6823 -36.3502
150 2 36.0423 15.2753 -37.0151
63 2 12.34 22.8209 -69.2887
54 2 2.68393 -16.2868 37.0614
52 1 1.90688 -16.499 36.2267
61 1 12.8118 22.216 -68.4186
62 2 13.2836 21.6111 -67.5485
76 1 17.335 18.3981 4.53303
58 1 46.5627 26.5893 43.9957
60 2 46.8406 27.5427 44.5953
78 2 16.7567 18.9432 3.68804
83 2 0.999229 -39.1458 -30.8438
59 2 46.2849 25.6359 43.3961
65 2 47.004 67.1619 78.6876
66 2 48.1378 67.6708 80.6467
64 1 47.5709 67.4164 79.6671
82 1 0.367201 -39.5236 -31.7402
101 2 -34.7691 61.1225 -23.6554
128 2 1.8298 20.0934 9.96737
102 2 -32.5618 61.7462 -23.3072
100 1 -33.6655 61.4343 -23.4813
125 2 42.1697 57.9683 13.4939
127 1 1.97234 21.1086 10.5101
129 2 2.11488 22.1238 11.0529
124 1 41.7253 58.032 14.5635
126 2 41.2809 58.0958 15.6331
136 1 159.155 -1.0857 47.8558
137 2 159.366 -2.22569 47.8167
74 2 -33.3004 -16.691 17.8458
104 2 89.38 92.8981 -51.4164
75 2 -31.563 -15.342 18.5837
68 2 145.818 33.872 98.5725
8 2 -68.4149 -42.0043 24.2484
7 1 -69.3448 -41.7666 23.597
9 2 -70.2748 -41.529 22.9457
73 1 -32.4317 -16.0165 18.2147
67 1 146.786 33.3964 99.0005
26 2 -93.3567 54.8322 -2.058
27 2 -91.3587 54.6219 -0.897724
25 1 -92.3577 54.7271 -1.47786
53 2 1.12982 -16.7111 35.3919
69 2 147.754 32.9207 99.4285
109 1 27.4972 4.94312 7.55652
110 2 28.2626 5.79254 7.36089
96 2 20.0651 11.943 1.24671
28 1 -44.4953 79.9587 40.7785
111 2 26.7318 4.0937 7.75216
30 2 -45.2055 79.9467 41.6956
29 2 -43.7851 79.9707 39.8613
94 1 20.1064 11.6236 2.36109
95 2 20.1477 11.3041 3.47547
35 2 54.1053 14.5007 13.4497
140 2 32.7322 15.1808 14.3889
39 2 26.299 43.4692 9.20804
139 1 33.1375 14.9111 13.336
37 1 26.4508 44.2522 10.0503
38 2 26.6027 45.0352 10.8926
141 2 33.5428 14.6414 12.2831
107 2 -42.4591 5.97697 -11.6159
108 2 -44.203 5.01837 -12.8085
106 1 -43.3311 5.49767 -12.2122
47 2 134.459 15.3755 54.2235
46 1 134.573 15.1378 55.3532
48 2 134.686 14.9002 56.4829
16 1 91.0193 6.64266 -80.1228
17 2 90.6645 7.68212 -80.496
18 2 91.3741 5.6032 -79.7497
6 2 34.3361 -16.5289 0.170877
33 2 25.3649 18.9625 0.816459
14 2 -43.135 35.2317 8.33681
13 1 -42.7897 34.2455 8.84066
84 2 -0.264826 -39.9014 -32.6365
90 2 -7.79941 33.0112 49.5822
88 1 -7.08593 32.2783 50.1293
97 1 -76.3692 -40.168 47.3698
89 2 -6.37245 31.5453 50.6764
99 2 -75.7155 -40.7956 46.6456
98 2 -77.0228 -39.5405 48.0941
19 1 -2.49285 35.4278 47.0912
20 2 -3.43725 35.7381 46.4934
21 2 -1.54845 35.1175 47.6891
15 2 -42.4444 33.2594 9.3445
116 2 -6.1507 -36.7019 13.2717
115 1 -7.14091 -36.3682 12.768
117 2 -8.13113 -36.0345 12.2643
50 2 -9.28831 62.0181 19.0798
49 1 -10.0691 62.8564 19.2621
51 2 -10.8499 63.6946 19.4444
44 2 -41.7716 -16.8537 61.022
43 1 -40.7533 -17.1552 61.4886
113 2 55.3126 -46.8749 56.5253
112 1 56.1731 -47.5364 56.9346
45 2 -39.7349 -17.4567 61.9552
114 2 57.0336 -48.198 57.3438
105 2 91.3146 93.6806 -52.4301
103 1 90.3473 93.2894 -51.9232
122 2 24.3447 -9.3217 29.215
4 1 34.1217 -16.8371 -0.926687
121 1 24.1459 -8.53896 30.0477
120 2 64.8944 -7.75813 -6.81301
118 1 65.9069 -7.55867 -7.3427
134 2 67.591 21.301 -5.27362
133 1 66.4778 21.351 -4.95129
135 2 65.3646 21.4011 -4.62896
123 2 23.9471 -7.75623 30.8804
119 2 66.9195 -7.3592 -7.87239
32 2 24.9249 18.4799 -1.40974
5 2 33.9073 -17.1453 -2.02425
31 1 25.1449 18.7212 -0.296639
ITEM: TIMESTEP
20000
ITEM: NUMBER OF ATOMS
150
ITEM: BOX BOUNDS pp pp pp
0.0000000000000000e+00 3.6000000000000000e+01
0.0000000000000000e+00 3.6000000000000000e+01
0.0000000000000000e+00 3.6000000000000000e+01
ITEM: ATOMS id type xu yu zu
6 2 38.5947 -33.7929 9.00998
126 2 45.1859 76.0666 2.98637
4 1 39.5252 -33.5741 8.35276
5 2 40.4557 -33.3553 7.69555
124 1 44.1847 75.739 3.47208
125 2 43.1835 75.4115 3.95779
8 2 -61.7598 -27.2764 5.70244
150 2 41.2519 6.49828 -65.8559
118 1 83.718 6.02351 -32.4284
9 2 -63.5026 -27.6243 7.19375
119 2 83.7008 6.14514 -33.5819
7 1 -62.6312 -27.4503 6.44809
120 2 83.7352 5.90187 -31.2749
69 2 119.828 17.0189 116.795
148 1 42.364 6.17028 -65.8919
20 2 -22.1037 50.1891 42.8048
13 1 -68.0162 0.0437406 5.24567
67 1 118.81 17.4905 117.09
52 1 -19.6109 -26.7831 44.0671
54 2 -20.5491 -27.0815 44.6805
53 2 -18.6726 -26.4847 43.4536
21 2 -23.9886 50.8714 41.6368
19 1 -23.0461 50.5302 42.2208
149 2 43.4761 5.84229 -65.9279
59 2 49.01 13.6342 73.6616
15 2 -67.135 0.732463 4.93762
58 1 49.2175 13.4702 72.5322
122 2 5.27785 -17.8435 47.6384
121 1 5.77842 -18.7101 47.0518
123 2 6.279 -19.5766 46.4652
116 2 -21.9829 -35.2821 15.0405
68 2 117.792 17.9621 117.384
46 1 150.575 13.1955 33.5661
60 2 49.4251 13.3062 71.4028
47 2 151.381 13.185 34.4004
48 2 149.769 13.2059 32.7319
134 2 49.4632 29.3136 1.37196
98 2 -93.4908 -40.8089 78.0731
10 1 -23.2027 -13.5481 74.0016
11 2 -23.3055 -12.4256 73.7277
12 2 -23.1 -14.6706 74.2756
135 2 51.5539 28.3112 1.28952
105 2 110.489 93.6243 -63.7787
14 2 -68.8973 -0.644982 5.55372
97 1 -93.4499 -41.6291 78.8923
133 1 50.5085 28.8124 1.33074
65 2 44.4983 60.9487 109.816
99 2 -93.4089 -42.4493 79.7116
64 1 45.1916 61.3888 108.997
70 1 13.8005 68.1598 47.965
103 1 111.108 93.1124 -62.9419
104 2 111.727 92.6004 -62.1051
115 1 -22.3555 -36.3289 14.7074
117 2 -22.7282 -37.3757 14.3743
71 2 12.6557 68.0093 48.0764
72 2 14.9453 68.3102 47.8535
61 1 41.3981 21.2315 -86.1567
63 2 40.6363 20.466 -85.7333
62 2 42.1599 21.9971 -86.58
108 2 -26.6371 22.5719 -16.0891
106 1 -26.5327 22.5609 -14.9339
107 2 -26.4282 22.55 -13.7786
79 1 5.74961 23.5314 -53.2617
81 2 6.3503 24.4991 -53.0419
80 2 5.14891 22.5637 -53.4814
84 2 15.8497 -12.5228 -12.4096
82 1 16.9981 -12.6359 -12.5289
87 2 89.2636 18.9046 -15.1597
131 2 -27.9425 25.3336 32.5672
66 2 45.8848 61.8289 108.177
145 1 39.5833 -44.0836 106.84
132 2 -26.5157 27.1628 32.5534
93 2 41.7666 31.7517 -1.47425
75 2 -34.047 -5.64383 -5.49646
73 1 -34.8021 -6.46976 -5.80183
91 1 41.4702 31.6578 -2.59181
92 2 41.1738 31.564 -3.70936
147 2 38.9497 -45.0545 106.799
130 1 -27.2291 26.2482 32.5603
146 2 40.217 -43.1128 106.88
74 2 -35.5572 -7.29569 -6.1072
89 2 -8.1047 4.81594 40.0969
88 1 -9.0651 4.23054 40.3807
90 2 -10.0255 3.64514 40.6645
128 2 -4.3599 17.3343 -0.0898919
129 2 -6.54354 17.2467 0.688826
127 1 -5.45172 17.2905 0.299467
56 2 65.8381 -31.3148 45.924
28 1 -53.132 72.488 48.1549
142 1 26.9743 40.9224 126.037
143 2 26.3102 40.0497 125.659
57 2 67.3751 -32.8477 46.7426
55 1 66.6066 -32.0813 46.3333
44 2 -37.5795 -27.009 49.4763
45 2 -37.1088 -29.0861 50.3963
43 1 -37.3442 -28.0475 49.9363
40 1 -6.89909 48.651 11.275
42 2 -7.31438 48.6776 10.1922
41 2 -6.4838 48.6244 12.3578
29 2 -53.4085 73.4342 48.7663
2 2 26.8158 39.5948 -13.5269
139 1 34.9225 47.06 -13.0765
1 1 26.8495 39.4229 -12.3802
141 2 35.6965 47.1196 -13.9384
3 2 26.8831 39.251 -11.2335
140 2 34.1485 47.0005 -12.2145
144 2 27.6384 41.7952 126.415
111 2 33.3855 9.71769 -7.6408
109 1 32.3593 9.27248 -7.94809
110 2 31.3332 8.82727 -8.25538
26 2 -118.751 72.3509 -8.6179
23 2 -50.1008 22.7565 37.6238
22 1 -49.7008 21.6777 37.4765
32 2 -9.03743 -6.28422 2.22402
34 1 71.0287 19.764 8.88559
36 2 70.0495 19.7346 8.26448
24 2 -49.3008 20.5988 37.3292
31 1 -9.0026 -5.13737 2.39462
101 2 -46.0123 58.378 -35.0148
33 2 -8.96776 -3.99051 2.56522
136 1 168.549 -9.89018 53.2909
30 2 -52.8554 71.5419 47.5434
50 2 -4.82938 57.95 13.1889
137 2 168.1 -10.3554 52.3279
51 2 -3.60018 59.8023 13.8525
49 1 -4.21478 58.8761 13.5207
35 2 72.008 19.7934 9.5067
85 1 90.347 19.1494 -15.4941
78 2 24.4501 18.2803 20.3574
114 2 66.4142 -42.9219 54.9815
113 2 67.3327 -45.0507 54.8981
112 1 66.8734 -43.9863 54.9398
76 1 24.082 18.9128 21.2573
77 2 23.7138 19.5454 22.1573
138 2 168.998 -9.42498 54.254
86 2 91.4305 19.3942 -15.8284
83 2 18.1464 -12.7489 -12.6481
18 2 103.131 19.2189 -77.0186
16 1 103.117 19.7664 -75.996
94 1 19.172 -3.10373 -7.2363
95 2 20.0463 -3.49248 -7.89208
96 2 18.2977 -2.71498 -6.58052
38 2 35.497 25.6461 -3.91732
17 2 103.103 20.3139 -74.9735
39 2 33.7595 25.6755 -2.38024
25 1 -119.534 71.5019 -8.72381
37 1 34.6283 25.6608 -3.14878
102 2 -46.9122 57.8817 -37.0948
100 1 -46.4622 58.1298 -36.0548
27 2 -120.317 70.6528 -8.82973
ITEM: TIMESTEP
30000
ITEM: NUMBER OF ATOMS
150
ITEM: BOX BOUNDS pp pp pp
0.0000000000000000e+00 3.6000000000000000e+01
0.0000000000000000e+00 3.6000000000000000e+01
0.0000000000000000e+00 3.6000000000000000e+01
ITEM: ATOMS id type xu yu zu
13 1 -104.974 -20.2719 1.18889
50 2 1.03568 51.8366 5.30491
49 1 1.82081 51.4518 6.06722
56 2 74.0864 -35.4112 37.5524
14 2 -105.154 -20.9238 2.13133
51 2 2.60595 51.067 6.82952
9 2 -70.5551 -25.0101 0.153054
15 2 -104.794 -19.62 0.246436
26 2 -129.649 80.2194 12.3778
25 1 -129.037 79.3813 12.8951
64 1 38.1375 52.4839 118.647
27 2 -128.424 78.5431 13.4125
46 1 150.963 10.9556 10.5806
47 2 151.601 9.98743 10.6091
59 2 40.6269 14.6502 87.88
60 2 42.4323 16.034 88.336
58 1 41.5296 15.3421 88.108
48 2 150.324 11.9237 10.5521
65 2 39.2192 52.6565 119.028
53 2 -25.8486 -22.8687 47.2074
54 2 -23.6135 -22.3562 46.8551
52 1 -24.731 -22.6124 47.0313
44 2 -18.7749 -26.5139 46.2495
66 2 37.0558 52.3113 118.265
43 1 -17.9906 -27.0122 45.5551
95 2 15.6195 11.1595 -11.6519
32 2 -28.2375 -32.5758 26.0826
117 2 -33.5016 -35.5348 19.7499
96 2 17.1615 9.47234 -11.2543
94 1 16.3905 10.3159 -11.4531
8 2 -70.9463 -22.9412 -0.821143
7 1 -70.7507 -23.9756 -0.334044
90 2 -25.594 5.88427 31.3189
67 1 111.865 2.91439 143.077
68 2 112.202 1.83755 143.346
69 2 111.527 3.99123 142.808
89 2 -27.5484 6.80514 30.4734
31 1 -27.7712 -32.5999 27.1445
88 1 -26.5712 6.3447 30.8961
33 2 -27.3049 -32.624 28.2064
35 2 77.2839 19.6009 2.82714
34 1 77.3366 19.0003 1.83611
108 2 -29.1722 27.1347 -31.2972
36 2 77.3893 18.3998 0.845077
55 1 73.688 -36.4932 37.4252
42 2 -26.8905 59.3791 3.92984
41 2 -24.9565 58.1525 3.55872
40 1 -25.9235 58.7658 3.74428
124 1 43.4032 70.1748 0.638782
125 2 42.2607 70.3748 0.620789
107 2 -29.4737 27.4906 -33.5698
106 1 -29.323 27.3127 -32.4335
126 2 44.5456 69.9748 0.656774
78 2 5.30703 29.7811 36.2057
92 2 43.9644 31.1214 -34.4668
91 1 43.128 31.3018 -33.6836
102 2 -56.6055 26.5709 -29.1283
101 2 -57.418 26.9707 -26.9924
100 1 -57.0117 26.7708 -28.0604
93 2 42.2916 31.4821 -32.9003
57 2 73.2896 -37.5752 37.2979
61 1 42.495 34.1144 -95.5903
62 2 41.8265 33.1801 -95.4295
63 2 43.1635 35.0486 -95.7512
134 2 72.4566 24.8272 17.49
4 1 41.4766 -39.3942 22.7766
116 2 -31.8612 -37.1754 19.761
5 2 41.2194 -39.6747 21.6807
6 2 41.7337 -39.1137 23.8724
115 1 -32.6814 -36.3551 19.7555
142 1 41.3571 62.1971 136.327
144 2 41.6274 62.5499 135.255
143 2 41.0868 61.8443 137.398
104 2 115.632 97.8942 -76.1777
103 1 116.019 97.976 -77.2681
105 2 116.406 98.0579 -78.3585
77 2 4.86625 27.7341 35.2067
81 2 46.293 24.1421 -41.366
80 2 46.7253 23.8021 -43.6198
79 1 46.5092 23.9721 -42.4929
113 2 44.1861 -48.7534 34.9595
112 1 44.7202 -47.738 34.7887
76 1 5.08664 28.7576 35.7062
114 2 45.2543 -46.7225 34.6179
149 2 58.8626 1.60932 -71.8852
148 1 59.3959 2.29711 -71.1183
110 2 34.8785 6.35748 -27.6159
109 1 33.7332 6.28488 -27.4465
150 2 59.9292 2.9849 -70.3514
45 2 -17.2062 -27.5105 44.8607
84 2 24.7963 4.72078 -28.6369
82 1 25.021 4.25226 -27.5998
111 2 32.588 6.21229 -27.2771
129 2 -5.52535 14.3601 -26.148
83 2 25.2457 3.78373 -26.5626
127 1 -5.19201 14.307 -25.0382
29 2 -37.5452 89.2595 52.833
28 1 -37.6157 89.8607 53.8225
137 2 174.857 16.0223 51.4429
128 2 -4.85867 14.2539 -23.9284
136 1 175.167 16.6592 52.3613
138 2 175.477 17.2962 53.2798
75 2 -11.2897 -20.6997 -14.2727
99 2 -78.4293 -64.0408 92.5573
74 2 -9.06795 -20.6388 -14.9381
73 1 -10.1788 -20.6693 -14.6054
97 1 -78.607 -63.1529 93.2823
98 2 -78.7846 -62.2649 94.0073
19 1 -52.9395 40.5485 25.956
21 2 -53.516 40.5561 24.9494
23 2 -5.09239 14.4712 34.1599
20 2 -52.3631 40.541 26.9626
118 1 65.7405 3.76394 -36.8939
119 2 65.3173 2.79023 -37.3612
22 1 -3.93345 14.491 34.2053
72 2 -7.81107 72.5499 65.2308
24 2 -2.77451 14.5108 34.2508
120 2 66.1636 4.73765 -36.4265
3 2 29.4666 29.5569 1.28422
130 1 -37.9851 28.9982 3.45269
131 2 -37.2364 28.1162 3.5364
132 2 -38.7339 29.8802 3.36898
1 1 29.5964 30.7093 1.2549
2 2 29.7261 31.8616 1.22557
38 2 68.0074 25.4374 -18.0252
37 1 68.3355 24.3535 -17.7743
17 2 104.371 29.921 -50.0884
135 2 71.3923 25.2056 19.5164
133 1 71.9244 25.0164 18.5032
18 2 103.74 31.9857 -50.9377
123 2 -7.46844 -44.0654 59.8137
122 2 -6.26447 -42.8579 61.3868
121 1 -6.86646 -43.4616 60.6003
16 1 104.055 30.9533 -50.5131
39 2 68.6637 23.2695 -17.5234
30 2 -37.6862 90.4619 54.8121
147 2 22.3779 -46.2143 105.23
146 2 22.0378 -43.9472 104.874
145 1 22.2078 -45.0808 105.052
141 2 31.6812 94.0581 -0.757594
139 1 31.9103 95.0797 -1.25695
10 1 -16.9128 -10.0682 69.9671
85 1 106.282 28.5124 29.3355
86 2 105.766 27.5447 28.9572
140 2 32.1393 96.1014 -1.7563
70 1 -8.48976 71.9485 64.5074
87 2 106.798 29.4802 29.7138
11 2 -16.3073 -11.0435 70.1336
71 2 -9.16845 71.3471 63.7839
12 2 -17.5184 -9.09294 69.8005
ITEM: TIMESTEP
40000
ITEM: NUMBER OF ATOMS
150
ITEM: BOX BOUNDS pp pp pp
0.0000000000000000e+00 3.6000000000000000e+01
0.0000000000000000e+00 3.6000000000000000e+01
0.0000000000000000e+00 3.6000000000000000e+01
ITEM: ATOMS id type xu yu zu
3 2 14.6305 87.1012 37.3795
1 1 15.0552 86.4945 36.4868
72 2 -27.95 75.0182 86.6194
70 1 -28.8925 74.3924 86.363
36 2 50.4353 0.979943 -25.4884
45 2 -28.8558 -18.059 81.1302
35 2 52.7392 1.09575 -25.242
71 2 -29.8349 73.7666 86.1066
34 1 51.5872 1.03785 -25.3652
41 2 -26.8244 78.4528 18.0304
137 2 182.662 46.7099 62.4711
113 2 53.413 -54.612 19.2182
114 2 52.3019 -54.7165 21.2521
112 1 52.8574 -54.6643 20.2352
117 2 -31.5503 -55.1884 23.4654
40 1 -26.2839 77.5184 18.4551
116 2 -31.7271 -54.6463 25.7142
121 1 -25.5378 -58.927 60.2999
123 2 -26.539 -59.0302 60.8766
42 2 -25.7435 76.584 18.8799
122 2 -24.5366 -58.8237 59.7233
95 2 15.8783 13.6417 -16.276
96 2 17.5627 14.2291 -14.7928
94 1 16.7205 13.9354 -15.5344
30 2 -24.7941 125.516 59.9772
115 1 -31.6387 -54.9173 24.5898
18 2 75.2799 8.53325 -41.3732
16 1 75.4524 8.27162 -42.4901
17 2 75.6248 8.00998 -43.607
2 2 15.48 85.8877 35.594
138 2 184.499 46.7393 63.888
136 1 183.581 46.7246 63.1795
108 2 -30.3642 31.1566 -66.6484
107 2 -28.7878 31.301 -68.3444
106 1 -29.576 31.2288 -67.4964
129 2 4.08013 -11.2695 -20.4126
44 2 -30.0002 -16.8312 82.7319
133 1 77.8329 33.0209 11.5414
135 2 77.3521 32.0261 11.8947
127 1 4.50817 -12.1196 -21.0756
128 2 4.93621 -12.9698 -21.7386
43 1 -29.428 -17.4451 81.931
134 2 78.3136 34.0157 11.1882
9 2 -101.309 -12.3387 17.681
91 1 42.2526 22.661 -49.8778
93 2 41.6871 22.2719 -50.8128
92 2 42.8182 23.05 -48.9427
97 1 -59.7156 -79.4267 90.6373
29 2 -24.9806 127.217 58.41
143 2 39.2559 60.9944 129.837
142 1 39.5878 61.6104 128.912
38 2 82.9246 22.4022 -14.7355
88 1 -18.0422 -12.1708 19.0156
8 2 -99.9131 -13.2298 19.3062
28 1 -24.8873 126.366 59.1936
39 2 84.0701 22.9749 -16.67
7 1 -100.611 -12.7842 18.4936
99 2 -58.9265 -78.6696 91.0243
37 1 83.4974 22.6885 -15.7027
90 2 -18.8794 -12.9729 19.0519
144 2 39.9197 62.2264 127.987
69 2 115.692 19.9419 170.131
67 1 116.825 19.7355 169.99
68 2 117.958 19.5292 169.848
98 2 -60.5047 -80.1837 90.2503
23 2 15.2061 24.323 29.9318
54 2 -22.8595 -10.7812 27.2058
126 2 47.8768 60.7802 -1.66293
125 2 49.1232 62.3164 -2.87493
124 1 48.5 61.5483 -2.26893
53 2 -23.1303 -9.67321 29.226
24 2 14.5335 23.2792 31.8915
22 1 14.8698 23.8011 30.9117
47 2 157.303 29.4799 -6.13754
48 2 158.981 28.4475 -4.91182
52 1 -22.9949 -10.2272 28.2159
46 1 158.142 28.9637 -5.52468
149 2 93.2154 -21.5217 -65.8564
148 1 92.4062 -20.7584 -65.5274
21 2 -51.9763 53.7132 37.4943
19 1 -52.4673 53.4539 38.5127
131 2 -49.1293 2.74739 2.64481
79 1 61.3735 0.493098 4.9555
130 1 -50.0182 2.00489 2.58088
80 2 61.7605 1.51618 4.56933
132 2 -50.9072 1.26239 2.51694
150 2 91.5971 -19.9951 -65.1985
20 2 -52.9584 53.1947 39.5312
62 2 58.4881 43.6997 -98.169
61 1 58.5121 44.2671 -97.1575
63 2 58.5361 44.8344 -96.146
10 1 -7.13337 -21.3438 83.2727
12 2 -7.72001 -21.3691 84.2731
26 2 -125.447 89.873 10.3056
25 1 -124.588 89.1935 9.92468
27 2 -123.728 88.5139 9.54378
11 2 -6.54673 -21.3185 82.2723
6 2 32.1203 -35.3183 16.8378
33 2 -43.4113 -32.6308 22.13
31 1 -42.417 -32.3688 22.667
32 2 -41.4227 -32.1068 23.2039
120 2 58.8347 9.60518 -51.2969
118 1 59.5195 8.76117 -50.8916
119 2 60.2043 7.91715 -50.4863
111 2 27.8908 4.84574 -45.8162
109 1 28.5728 4.14812 -45.1886
110 2 29.2547 3.45051 -44.561
64 1 23.3581 39.702 106.679
66 2 22.3748 39.1113 106.507
73 1 24.6998 -22.9817 -2.74269
49 1 -8.14062 54.001 -1.84907
74 2 24.2222 -23.9475 -2.31279
75 2 25.1774 -22.0159 -3.17258
50 2 -7.16007 53.4382 -2.10876
65 2 24.3415 40.2928 106.851
87 2 100.832 18.2983 37.8932
85 1 101.726 19.0247 38.0311
86 2 102.62 19.7511 38.1689
140 2 24.2606 103.121 0.70353
81 2 60.9865 -0.529987 5.34166
84 2 24.4787 20.2831 -35.7478
83 2 26.7195 20.8044 -35.4488
82 1 25.5991 20.5437 -35.5983
78 2 24.4583 26.7603 16.796
103 1 127.729 92.4699 -91.1381
56 2 65.343 -39.5177 50.0835
57 2 67.2955 -40.0369 51.2239
55 1 66.3193 -39.7773 50.6537
4 1 31.3296 -36.0538 16.4142
76 1 24.2275 25.7227 17.2606
102 2 -78.8421 -6.12651 -54.5684
5 2 30.5389 -36.7892 15.9907
104 2 128.203 91.4494 -91.4205
105 2 127.256 93.4904 -90.8558
77 2 23.9968 24.6852 17.7252
101 2 -79.283 -7.97288 -53.2347
147 2 32.0749 -44.3627 92.5021
89 2 -17.2049 -11.3687 18.9792
145 1 31.1283 -44.4213 93.17
100 1 -79.0626 -7.0497 -53.9015
146 2 30.1816 -44.4799 93.8378
51 2 -9.12117 54.5637 -1.58938
59 2 33.3382 25.4727 105.45
60 2 34.3849 23.4024 105.473
58 1 33.8615 24.4375 105.461
139 1 24.1915 102.843 -0.420608
141 2 24.1225 102.565 -1.54475
15 2 -110.402 -16.0693 -5.13453
14 2 -110.758 -13.8203 -5.57897
13 1 -110.58 -14.9448 -5.35675
ITEM: TIMESTEP
50000
ITEM: NUMBER OF ATOMS
150
ITEM: BOX BOUNDS pp pp pp
0.0000000000000000e+00 3.6000000000000000e+01
0.0000000000000000e+00 3.6000000000000000e+01
0.0000000000000000e+00 3.6000000000000000e+01
ITEM: ATOMS id type xu yu zu
63 2 50.156 38.9447 -101.554
143 2 47.2465 36.3966 151.145
142 1 46.5403 35.9288 150.353
61 1 50.0569 40.0692 -101.287
62 2 49.9578 41.1937 -101.02
1 1 -26.1783 75.4498 40.9172
2 2 -26.8914 74.7258 40.3578
3 2 -25.4651 76.1737 41.4766
116 2 3.99227 -68.1262 47.2077
115 1 4.22101 -69.0726 47.8383
31 1 -19.2453 -30.9275 16.7146
117 2 4.44975 -70.019 48.4688
32 2 -20.125 -31.6205 16.4122
113 2 51.2517 -55.7879 16.7226
112 1 51.8617 -54.8081 16.839
33 2 -18.3656 -30.2345 17.0171
125 2 36.0595 76.8262 -18.5914
20 2 -18.5929 48.205 53.4823
124 1 36.7057 75.914 -18.2816
5 2 47.2027 -30.7157 -11.743
48 2 161.053 49.0175 -12.4701
126 2 37.3519 75.0019 -17.9718
24 2 17.7031 16.7491 23.0117
47 2 160.59 50.7002 -10.9418
92 2 50.2407 16.7408 -52.2426
91 1 50.6703 16.3027 -51.2582
21 2 -19.1691 50.1689 54.5746
51 2 -23.5866 50.3874 -11.8257
22 1 17.9125 17.7863 22.5362
19 1 -18.881 49.187 54.0285
49 1 -23.2996 51.4998 -11.6649
93 2 51.1 15.8647 -50.2738
46 1 160.821 49.8588 -11.706
50 2 -23.0125 52.6121 -11.5041
4 1 47.9982 -30.4674 -10.936
6 2 48.7936 -30.219 -10.1291
120 2 51.9733 11.2985 -37.3521
42 2 -56.0795 81.1683 27.5376
118 1 52.9046 11.837 -37.786
140 2 48.3386 120.504 -4.4892
139 1 49.0513 120.774 -3.61467
141 2 49.7639 121.044 -2.74014
100 1 -91.8728 -21.7867 -41.4525
102 2 -91.1924 -20.9755 -41.9264
101 2 -92.5531 -22.598 -40.9786
119 2 53.8359 12.3756 -38.2199
40 1 -55.7649 82.2821 27.616
41 2 -55.4503 83.3959 27.6943
144 2 45.8341 35.4609 149.56
77 2 10.8467 32.7993 8.2947
76 1 10.4153 31.7395 8.4853
78 2 9.98399 30.6796 8.67591
37 1 77.1272 20.1461 -24.9294
38 2 77.2992 19.8109 -26.0265
39 2 76.9553 20.4813 -23.8323
121 1 -24.1213 -47.7308 88.5669
123 2 -23.445 -48.6716 88.6239
122 2 -24.7976 -46.7901 88.5098
88 1 -25.0293 -16.9458 14.8154
90 2 -25.9575 -17.4324 14.3182
89 2 -24.101 -16.4593 15.3126
137 2 191.241 60.6995 84.2068
59 2 36.8235 32.7982 85.7179
108 2 -31.9949 28.6283 -96.3626
106 1 -31.7685 29.0896 -95.3226
107 2 -31.5421 29.551 -94.2827
35 2 37.2884 -7.01923 -58.4654
30 2 -26.8092 130.172 89.2445
36 2 37.1344 -6.41636 -56.2304
114 2 52.4717 -53.8284 16.9554
53 2 -21.765 -4.31631 16.383
34 1 37.2114 -6.71779 -57.3479
52 1 -21.9301 -4.99699 17.3076
60 2 38.8065 33.8102 85.0652
136 1 190.383 61.0843 84.8862
58 1 37.815 33.3042 85.3916
138 2 189.525 61.4691 85.5655
95 2 16.0494 -4.82094 -10.4669
130 1 -54.2698 -14.3976 25.5967
28 1 -26.9046 129.584 90.2401
94 1 15.2209 -4.05708 -10.742
29 2 -27 128.997 91.2356
131 2 -55.4062 -14.3583 25.8259
96 2 14.3924 -3.29322 -11.017
54 2 -22.0951 -5.67768 18.2323
45 2 -35.5964 -2.22296 64.2891
44 2 -34.6743 -1.95663 66.4012
43 1 -35.1354 -2.0898 65.3451
150 2 113.676 -38.746 -79.0153
148 1 113.15 -38.6988 -80.0481
149 2 112.624 -38.6515 -81.081
74 2 52.3035 -4.99486 -4.41731
73 1 51.3868 -5.23688 -5.08566
75 2 50.4701 -5.47891 -5.75401
57 2 73.4206 -50.639 35.5879
83 2 36.2911 22.2358 -41.9161
55 1 72.677 -51.396 35.1191
66 2 -14.7357 39.6434 112.637
64 1 -15.13 40.7253 112.497
65 2 -15.5242 41.8073 112.358
99 2 -43.9644 -95.5239 80.8357
10 1 23.6162 -26.9741 82.7582
11 2 24.0063 -25.9753 82.3159
27 2 -122.389 122.455 11.0734
25 1 -122.702 121.398 10.7121
26 2 -123.015 120.341 10.3508
98 2 -43.7102 -96.8383 82.7305
97 1 -43.8373 -96.1811 81.7831
12 2 23.2261 -27.973 83.2006
70 1 -43.5845 72.3413 92.2774
71 2 -44.1731 72.1833 93.2645
16 1 55.3973 -18.7297 -46.1757
18 2 55.5796 -19.8259 -46.5086
72 2 -42.996 72.4992 91.2903
15 2 -119.98 -4.29691 8.18651
13 1 -119.994 -3.13972 8.10705
14 2 -120.009 -1.98254 8.02758
85 1 103.155 31.3167 46.6064
134 2 70.5788 33.6307 11.1071
133 1 69.9159 33.2957 11.998
86 2 102.83 32.1621 45.8816
87 2 103.48 30.4714 47.3312
135 2 69.2529 32.9607 12.889
127 1 20.8481 -12.0936 -13.2877
128 2 19.8046 -12.3358 -12.8427
129 2 21.8917 -11.8514 -13.7326
109 1 20.8214 19.7241 -51.3293
111 2 20.8743 18.5749 -51.4781
110 2 20.7684 20.8732 -51.1804
23 2 18.1219 18.8234 22.0608
80 2 66.8673 -4.81388 25.8671
81 2 67.3907 -2.67491 26.5974
79 1 67.129 -3.7444 26.2323
132 2 -53.1333 -14.437 25.3675
9 2 -112.443 -13.0414 26.9155
17 2 55.215 -17.6336 -45.8428
56 2 71.9334 -52.1529 34.6503
103 1 105.79 98.5894 -112.638
104 2 105.3 98.0271 -111.749
146 2 21.8497 -51.6486 101.026
147 2 19.5941 -51.4597 100.517
145 1 20.7219 -51.5542 100.772
68 2 137.532 20.999 177.661
67 1 138.532 20.8548 177.091
69 2 139.532 20.7106 176.521
84 2 35.4331 22.4158 -44.0641
82 1 35.8621 22.3258 -42.9901
7 1 -112.461 -11.9778 27.378
105 2 106.279 99.1517 -113.526
8 2 -112.479 -10.9141 27.8405
ITEM: TIMESTEP
60000
ITEM: NUMBER OF ATOMS
150
ITEM: BOX BOUNDS pp pp pp
0.0000000000000000e+00 3.6000000000000000e+01
0.0000000000000000e+00 3.6000000000000000e+01
0.0000000000000000e+00 3.6000000000000000e+01
ITEM: ATOMS id type xu yu zu
85 1 75.3509 41.0127 41.1512
87 2 75.7513 42.0265 41.548
86 2 74.9505 39.9989 40.7544
16 1 78.6554 -32.5913 -30.7047
18 2 79.3467 -32.8484 -31.6
17 2 77.9641 -32.3342 -29.8094
40 1 -61.9413 72.1235 40.3348
41 2 -62.78 71.8611 41.092
42 2 -61.1026 72.3859 39.5776
88 1 -28.5409 15.0416 6.61663
90 2 -27.8309 15.8425 7.06385
89 2 -29.2508 14.2406 6.16941
36 2 53.5733 14.2163 -68.1488
54 2 -35.1044 4.4063 36.8454
34 1 53.4349 13.5194 -69.0657
35 2 53.2966 12.8225 -69.9827
32 2 5.58978 -30.164 17.4354
31 1 4.88496 -30.7019 16.6874
33 2 4.18014 -31.2397 15.9393
75 2 38.0794 6.63572 -23.8935
74 2 40.208 6.59916 -22.9715
73 1 39.1437 6.61744 -23.4325
47 2 153.282 36.406 12.4055
63 2 36.1743 45.4945 -117.539
61 1 37.2901 45.1873 -117.618
62 2 38.4059 44.8802 -117.697
57 2 82.5822 -60.3341 57.5752
55 1 83.39 -61.0005 57.076
56 2 84.1977 -61.6668 56.5769
132 2 -63.7168 -19.6097 26.365
126 2 39.8725 83.7264 -41.9021
130 1 -63.4768 -18.6539 26.9769
52 1 -34.8363 5.33178 36.1995
1 1 -31.3739 75.4292 30.265
2 2 -30.4657 75.654 30.9508
145 1 44.9492 -65.6055 103.275
146 2 44.5283 -64.7967 103.992
147 2 45.3701 -66.4143 102.558
3 2 -32.2821 75.2044 29.5793
53 2 -34.5682 6.25725 35.5536
124 1 40.6759 83.1683 -41.2786
110 2 12.2331 10.8852 -42.0237
125 2 41.4793 82.6101 -40.6552